ITEM: TIMESTEP
300
ITEM: NUMBER OF ATOMS
361
ITEM: BOX BOUNDS pp pp pp
-10 10
0 50
-10 10
ITEM: ATOMS id type x y z 
66 1 -1.71893 16.1862 -3.45294 
68 1 1.63607 16.3439 -3.40702 
15 1 -3.48539 19.7468 -5.39602 
21 1 -5.4495 21.5397 -5.40379 
23 1 -3.52649 21.4451 -7.28655 
71 1 -5.4445 19.6906 -3.5167 
74 1 -3.55803 17.9404 -3.71007 
89 1 -7.22632 21.6115 -3.4927 
93 1 -3.80744 21.5811 -3.67114 
1 1 -1.55909 21.7519 -8.98741 
3 1 1.39141 21.6017 -8.71463 
13 1 -1.56711 19.895 -7.15546 
14 1 -1.72475 17.9937 -5.34341 
16 1 1.59849 19.9224 -7.09849 
17 1 1.63488 17.9818 -5.39078 
18 1 -0.0192724 19.7547 -5.32907 
25 1 -1.85884 21.635 -5.25382 
27 1 -0.0137722 21.7147 -7.04955 
29 1 1.78917 21.6086 -5.24451 
75 1 -1.84471 19.8783 -3.59097 
78 1 -0.123486 17.9512 -3.50657 
79 1 1.70051 19.6981 -3.59825 
97 1 -0.0740125 21.631 -3.50917 
19 1 3.42108 19.7161 -5.44228 
31 1 3.5464 21.5917 -7.10829 
33 1 5.39395 21.5245 -5.30166 
82 1 3.50966 17.8781 -3.52336 
83 1 5.35818 19.6303 -3.69838 
101 1 3.71171 21.5857 -3.52123 
105 1 7.10577 21.6058 -3.60658 
2 1 -3.55351 23.4541 -8.69668 
7 1 -3.59574 26.8817 -8.76976 
20 1 -5.31687 23.3106 -7.09313 
22 1 -7.08972 23.4796 -5.41687 
26 1 -3.59122 23.4439 -5.30492 
36 1 -5.40159 26.9833 -7.17186 
37 1 -5.23485 25.2908 -5.46842 
38 1 -7.15044 26.9118 -5.45374 
39 1 -3.60343 25.1925 -7.0126 
42 1 -3.45601 27.0709 -5.30992 
87 1 -8.82603 23.6266 -3.75451 
90 1 -5.34083 23.4674 -3.65417 
109 1 -8.96233 26.6918 -3.68585 
111 1 -6.9904 25.3194 -3.62399 
112 1 -5.27758 27.1044 -3.65046 
115 1 -3.54819 25.3105 -3.56733 
4 1 0.082336 23.5977 -8.78118 
6 1 -1.77917 25.1063 -8.72716 
8 1 1.81494 25.2814 -8.82279 
9 1 -0.0838977 26.79 -8.82284 
24 1 -1.80461 23.3746 -7.05667 
28 1 1.71426 23.3585 -6.87357 
30 1 -0.0935086 23.4095 -5.25971 
40 1 -1.80727 27.0409 -7.16077 
41 1 -1.74823 25.3174 -5.27488 
43 1 0.0693748 25.3227 -6.95532 
44 1 1.89091 27.0439 -7.08482 
45 1 1.8022 25.2807 -5.24097 
46 1 0.064795 27.2814 -5.42934 
94 1 -1.83963 23.4363 -3.53739 
98 1 1.83636 23.4932 -3.56821 
116 1 -1.77643 27.1114 -3.61307 
119 1 0.0512249 25.3182 -3.53027 
120 1 1.73841 27.0761 -3.52987 
5 1 3.218 23.2865 -8.84348 
10 1 3.76571 26.6403 -8.87311 
32 1 5.43491 23.551 -7.24745 
34 1 3.71416 23.4202 -5.36835 
35 1 7.18499 23.7147 -5.24874 
47 1 3.60949 25.1317 -7.06303 
48 1 5.41452 27.1503 -7.02212 
49 1 5.33004 25.32 -5.3375 
50 1 3.61149 27.1077 -5.33182 
51 1 7.38496 27.0901 -5.33047 
102 1 5.40285 23.5442 -3.60756 
106 1 8.83058 23.3357 -3.39769 
123 1 3.56654 25.3542 -3.7031 
124 1 5.52798 27.1827 -3.6746 
127 1 7.28356 25.3997 -3.50415 
128 1 8.86089 27.3574 -3.1738 
52 1 -5.506 28.774 -5.44618 
53 1 -3.6018 28.871 -7.17645 
56 1 -3.67451 30.6919 -5.45738 
132 1 -7.21464 28.7129 -3.65878 
133 1 -5.55729 30.6409 -3.67237 
136 1 -3.51634 29.0532 -3.68498 
152 1 -3.61528 32.3272 -3.68064 
11 1 -1.69487 28.7574 -8.98023 
12 1 1.90189 28.3449 -9.0342 
54 1 -1.7787 30.5721 -7.27036 
55 1 -1.70812 28.8493 -5.47792 
57 1 0.0277101 28.8401 -7.35625 
58 1 1.89278 30.3703 -7.40021 
59 1 1.93747 29.02 -5.33839 
60 1 0.0444974 30.6186 -5.45085 
64 1 -1.5709 32.2219 -5.43215 
65 1 1.66616 32.216 -5.63576 
137 1 -1.64968 30.7079 -3.65744 
140 1 -0.042918 28.974 -3.62548 
141 1 1.69367 30.8158 -3.69548 
154 1 0.0308464 32.7938 -3.69461 
61 1 3.64488 28.8105 -7.2748 
62 1 5.44285 28.9972 -5.40553 
63 1 3.66402 30.6885 -5.32087 
144 1 3.60678 28.8111 -3.57013 
145 1 5.27118 30.8111 -3.59826 
148 1 7.215 29.091 -3.55144 
157 1 3.32439 32.5943 -3.60642 
67 1 -3.56935 16.4093 -1.61907 
160 1 -3.75416 16.3239 1.62889 
69 1 -0.164414 16.1927 -1.67104 
159 1 -1.82385 16.2093 0.0900214 
161 1 1.70901 16.1279 -0.0219888 
162 1 -0.104513 16.0865 1.80767 
70 1 3.55532 16.2321 -1.68548 
163 1 3.32764 16.0571 1.79282 
72 1 -5.31781 18.1726 -1.70147 
73 1 -7.22299 19.8505 -1.67477 
77 1 -3.53937 19.8607 -1.81328 
88 1 -9.11388 21.9009 -1.82912 
91 1 -5.4075 21.6596 -1.82571 
164 1 -5.50486 19.9587 -0.157926 
165 1 -5.60074 18.125 1.456 
166 1 -7.29414 20.0071 1.81067 
167 1 -3.54788 18.2819 0.0461615 
170 1 -3.68995 19.7718 1.91992 
181 1 -9.00388 22.1114 1.84199 
182 1 -7.28636 21.6104 -0.0276861 
184 1 -5.53178 21.6615 1.85208 
186 1 -3.67631 21.6002 0.146232 
76 1 -1.97253 18.1569 -1.88021 
80 1 1.71324 18.0207 -1.66036 
81 1 -0.0108585 19.6879 -1.74695 
95 1 -1.86325 21.6263 -1.69907 
99 1 1.91182 21.5678 -1.8809 
168 1 -1.72379 19.8509 0.144648 
169 1 -1.79382 18.009 1.817 
171 1 -0.175575 17.9829 0.00769132 
172 1 1.74179 19.9091 0.0678475 
173 1 1.70618 18.0065 1.69389 
174 1 0.076389 19.8706 1.81985 
188 1 -1.76499 21.5818 1.89959 
190 1 0.00803085 21.6641 -0.0607517 
192 1 1.78289 21.6187 1.78886 
84 1 5.31789 17.9136 -1.69333 
85 1 3.59101 19.7335 -1.84121 
86 1 6.98259 19.752 -1.77413 
103 1 5.28261 21.7099 -1.89087 
107 1 8.57889 21.6423 -1.54962 
175 1 3.48379 18.015 0.0328059 
176 1 5.27157 19.8552 -0.0619537 
177 1 5.23147 18.0017 1.71257 
178 1 3.57603 19.902 1.70738 
179 1 7.06837 19.7761 1.63509 
194 1 3.68672 21.7282 0.00916523 
196 1 5.54885 21.6306 1.94065 
198 1 6.81476 21.7646 -0.0136714 
200 1 8.86857 21.3802 1.23574 
92 1 -7.08371 23.3913 -1.88352 
96 1 -3.55198 23.3659 -1.68409 
110 1 -8.63593 25.1339 -1.93268 
113 1 -5.32219 25.2862 -1.93317 
114 1 -7.05392 26.9323 -1.79918 
118 1 -3.48236 27.1212 -1.83554 
180 1 -8.8584 23.6667 -0.139122 
183 1 -5.35909 23.3399 -0.0159773 
185 1 -7.07864 23.4831 1.82996 
189 1 -3.52036 23.3754 1.88747 
202 1 -8.90553 26.7699 -0.0192933 
203 1 -8.74429 25.3621 1.88602 
204 1 -6.89247 25.2285 -0.0755363 
205 1 -5.27812 27.1098 -0.0569353 
206 1 -5.2289 25.2231 1.84325 
207 1 -7.02518 26.9924 1.77969 
208 1 -3.62211 25.1904 -0.0434117 
211 1 -3.65952 27.0525 1.7765 
100 1 0.0452069 23.4475 -1.76785 
117 1 -1.78978 25.2427 -1.75945 
121 1 1.75695 25.3403 -1.75224 
122 1 -0.0894763 26.9709 -1.80519 
187 1 -1.79526 23.3387 0.178221 
191 1 1.75277 23.4271 0.0927374 
193 1 0.0990019 23.4369 1.86789 
209 1 -1.83325 27.0982 -0.0154256 
210 1 -1.72946 25.2095 1.84044 
212 1 -0.116311 25.1487 -0.0433699 
213 1 1.80747 27.1427 0.15198 
214 1 1.72879 25.2619 1.84939 
215 1 -0.0522186 27.0981 1.69378 
104 1 3.43855 23.59 -1.80251 
108 1 6.96937 23.6235 -1.84665 
125 1 5.33827 25.3895 -1.82562 
126 1 3.53546 27.1381 -1.79891 
129 1 9.05206 25.2847 -1.70794 
130 1 7.09265 27.1376 -1.74532 
195 1 5.21578 23.5251 -0.0888751 
197 1 3.59396 23.4237 1.82263 
199 1 8.93201 23.2754 -0.0725397 
201 1 7.08118 23.5048 1.8214 
216 1 3.57999 25.3321 -0.008888 
217 1 5.2548 27.1157 -0.0338765 
218 1 5.27244 25.2173 1.84631 
219 1 3.53588 27.0793 1.79879 
220 1 7.17651 25.1664 -0.0259486 
221 1 8.72867 27.2145 -0.0734121 
222 1 9.00236 25.1209 1.61035 
223 1 7.04077 26.9841 1.7652 
131 1 -8.89892 28.4222 -1.70495 
134 1 -5.35406 28.8885 -1.86468 
135 1 -7.26256 30.5364 -1.48648 
139 1 -3.66725 30.7531 -1.71942 
151 1 -5.48458 32.3326 -1.72644 
224 1 -8.93298 28.5727 1.6856 
225 1 -7.11881 28.7531 -0.0129516 
226 1 -5.35427 30.6711 0.0295097 
227 1 -5.37595 28.8965 1.81229 
228 1 -7.18382 30.7246 1.76961 
229 1 -3.54677 29.0512 -0.060562 
232 1 -3.43275 30.7304 1.69883 
244 1 -5.22033 32.391 1.70318 
245 1 -3.58684 32.7389 -0.00561112 
138 1 -1.6779 28.9335 -1.82705 
142 1 1.7008 28.9231 -1.7664 
143 1 -0.00124531 30.7666 -1.87188 
153 1 -1.75195 32.5034 -1.8118 
155 1 1.72405 32.5958 -1.72022 
230 1 -1.77515 30.7266 -0.0899686 
231 1 -1.79577 28.9496 1.74046 
233 1 -0.0368995 28.9317 0.00226711 
234 1 1.75842 30.8596 0.111095 
235 1 1.77839 28.9893 1.75685 
236 1 0.00466402 30.8467 1.75432 
247 1 -1.79186 32.6156 1.75067 
248 1 -0.001914 32.5267 -0.098606 
250 1 1.81027 32.5441 1.90404 
146 1 5.38147 29.0845 -1.80309 
147 1 3.49457 30.8762 -1.80099 
149 1 8.8731 29.2135 -1.34263 
150 1 7.1308 30.8609 -1.65771 
158 1 5.38674 32.5229 -1.7344 
237 1 3.53241 29.1339 -0.0339126 
238 1 5.30009 30.8126 0.0165212 
239 1 5.21266 28.9579 1.88407 
240 1 3.65087 30.8262 1.87628 
241 1 6.92743 28.9974 0.0548956 
242 1 8.88917 28.876 1.58965 
243 1 7.24762 30.9058 1.78255 
252 1 3.50816 32.6689 -0.0623934 
253 1 5.32223 32.5151 1.72099 
156 1 0.000950642 34.3962 -1.75065 
246 1 -1.7283 34.2527 0.0304206 
249 1 1.7334 34.2423 0.170538 
251 1 0.0808742 34.309 1.86423 
254 1 -1.96054 16.2994 3.46922 
255 1 1.55338 16.2719 3.6064 
256 1 -5.58645 19.7119 3.52473 
257 1 -3.81523 17.8977 3.57945 
260 1 -3.61757 19.7631 5.31065 
269 1 -7.25128 21.7606 3.84758 
271 1 -5.3803 21.5948 5.38071 
273 1 -3.62305 21.5866 3.72611 
332 1 -3.52192 21.5934 7.12364 
258 1 -1.76317 19.7651 3.70064 
259 1 -1.62393 17.8894 5.31999 
261 1 -0.0109798 18.0047 3.52159 
262 1 1.76666 19.9008 3.73786 
263 1 1.79702 18.0683 5.45717 
264 1 0.0980058 19.6952 5.49818 
275 1 -1.54932 21.5204 5.35945 
277 1 0.0115852 21.6189 3.57465 
279 1 1.90032 21.6623 5.39311 
329 1 -1.67392 19.7586 7.06933 
330 1 1.90549 19.9204 7.19256 
334 1 -1.59037 21.525 8.78006 
336 1 0.154918 21.6033 7.14563 
338 1 1.77414 21.8802 8.94811 
265 1 3.31807 18.187 3.54619 
266 1 5.29153 19.7448 3.59536 
267 1 3.68481 19.8525 5.46745 
281 1 3.5539 21.5793 3.47844 
283 1 5.3412 21.6845 5.22443 
285 1 7.14577 21.4703 3.61359 
340 1 3.64187 21.8308 7.30448 
268 1 -8.83117 23.9038 3.7853 
270 1 -5.33037 23.4538 3.6251 
272 1 -7.10714 23.7444 5.46972 
276 1 -3.4413 23.4585 5.428 
288 1 -8.60383 26.8411 3.70945 
289 1 -6.8391 25.2152 3.5766 
290 1 -5.3279 27.165 3.64297 
291 1 -5.23486 25.1847 5.58482 
292 1 -7.07128 26.9195 5.60856 
293 1 -3.53906 25.2045 3.63169 
296 1 -3.61591 26.9561 5.39746 
331 1 -5.20785 23.3631 7.30593 
335 1 -3.24952 23.448 8.94871 
343 1 -5.32544 27.1731 7.24402 
344 1 -3.5551 25.1852 7.35479 
347 1 -3.40123 27.1856 8.87969 
274 1 -1.70167 23.3321 3.66026 
278 1 1.84416 23.3599 3.68496 
280 1 0.193359 23.5011 5.24904 
294 1 -1.84032 27.1793 3.52687 
295 1 -1.82728 25.2329 5.37678 
297 1 0.0410224 25.2788 3.58067 
298 1 1.76232 27.2226 3.59459 
299 1 1.84856 25.4375 5.30716 
300 1 -0.0714255 27.1133 5.30409 
333 1 -1.69497 23.3392 7.07373 
337 1 1.89182 23.5068 7.15944 
339 1 -0.078214 23.4794 8.76204 
345 1 -1.75305 27.161 7.01717 
346 1 -1.60267 25.4357 8.94256 
348 1 0.086896 25.2672 7.12447 
349 1 1.75532 27.1663 7.24085 
350 1 1.69616 25.2188 8.92284 
351 1 0.0126806 27.1945 8.79716 
282 1 5.28876 23.4382 3.5651 
284 1 3.67881 23.52 5.36314 
286 1 9.03702 23.1552 3.09656 
287 1 7.21542 23.2823 5.17526 
301 1 3.48575 25.301 3.71941 
302 1 5.32631 27.0228 3.58371 
303 1 5.45354 25.3002 5.29777 
304 1 3.76228 27.2599 5.42739 
305 1 7.21324 25.2229 3.47228 
306 1 9.13914 27.0499 3.02427 
307 1 7.24415 26.9328 5.18764 
341 1 5.36767 23.7298 7.05633 
342 1 3.8077 23.9509 8.94821 
352 1 3.53611 25.39 7.07507 
353 1 5.46966 26.7941 7.20842 
354 1 3.35217 27.1286 8.87609 
308 1 -7.20642 28.8498 3.64928 
309 1 -5.51518 30.7755 3.56633 
310 1 -5.48979 28.803 5.41026 
311 1 -3.64565 28.9406 3.61463 
314 1 -3.6494 30.7222 5.24907 
324 1 -3.51635 32.5813 3.48349 
355 1 -3.56629 29.02 7.04669 
312 1 -1.78075 30.7434 3.508 
313 1 -1.81382 28.9931 5.34133 
315 1 0.081845 28.996 3.53509 
316 1 1.71342 30.8136 3.58642 
317 1 1.83238 28.869 5.40786 
318 1 0.0221948 30.8883 5.31752 
325 1 -1.95296 32.5366 5.2089 
326 1 -0.0190783 32.7046 3.59336 
327 1 1.85497 32.5419 5.18945 
356 1 -1.79843 30.9053 7.14236 
357 1 -1.72857 28.9474 8.72066 
358 1 -0.0456732 29.0343 7.05608 
359 1 1.78615 30.8295 7.01305 
360 1 1.73104 29.1849 8.74732 
319 1 3.60595 28.9168 3.49438 
320 1 5.49492 30.9249 3.5601 
321 1 5.49998 28.8795 5.42865 
322 1 3.6739 30.6396 5.22467 
323 1 7.12093 28.8323 3.44652 
328 1 3.7703 32.5594 3.5756 
361 1 3.78015 29.0047 7.25616 
