ITEM: TIMESTEP
500
ITEM: NUMBER OF ATOMS
361
ITEM: BOX BOUNDS pp pp pp
-10 10
0 50
-10 10
ITEM: ATOMS id type x y z 
66 1 -2.04766 16.3848 -3.31182 
68 1 1.55176 16.0023 -3.35642 
15 1 -3.62903 19.8251 -5.38364 
21 1 -5.4664 21.6506 -5.3423 
23 1 -3.51939 21.5948 -7.0884 
71 1 -5.57413 19.7974 -3.33842 
74 1 -3.82917 17.9971 -3.34814 
89 1 -7.38273 21.8473 -3.45506 
93 1 -3.6598 21.3546 -3.34566 
1 1 -1.63906 21.8225 -8.86117 
3 1 1.39747 21.2402 -8.852 
13 1 -1.8153 19.7027 -7.10742 
14 1 -1.79572 18.0361 -5.2421 
16 1 1.55344 19.386 -7.02741 
17 1 1.53008 17.931 -5.06664 
18 1 -0.0520397 19.646 -5.25582 
25 1 -1.73889 21.3665 -5.20666 
27 1 -0.0842383 21.5657 -7.00878 
29 1 1.88929 21.5639 -5.2618 
75 1 -1.86496 19.645 -3.35166 
78 1 -0.106881 17.7964 -3.40897 
79 1 1.84022 19.8003 -3.65923 
97 1 0.00697236 21.6609 -3.67654 
19 1 3.5719 19.655 -5.43405 
31 1 3.32422 21.348 -7.21337 
33 1 5.42905 21.4724 -5.32802 
82 1 3.42833 17.7549 -3.55406 
83 1 5.23571 19.6979 -3.66139 
101 1 3.63524 21.6379 -3.50252 
105 1 7.34326 21.4679 -3.43228 
2 1 -3.76568 23.3061 -8.71863 
7 1 -3.60915 26.4914 -9.04911 
20 1 -5.50712 23.7521 -7.09396 
22 1 -7.12333 23.5982 -5.46363 
26 1 -3.53997 23.1817 -5.19502 
36 1 -5.428 26.8339 -7.18611 
37 1 -5.28816 25.1917 -5.29382 
38 1 -7.02666 26.9456 -5.36481 
39 1 -3.51867 25.201 -7.04486 
42 1 -3.52566 27.0786 -5.36674 
87 1 -8.86267 23.7672 -3.68853 
90 1 -5.29137 23.2166 -3.52813 
109 1 -8.96184 26.6114 -3.87744 
111 1 -6.94382 25.1539 -3.53263 
112 1 -5.43548 27.0715 -3.58921 
115 1 -3.5923 25.1736 -3.48142 
4 1 0.3504 23.4815 -8.91582 
6 1 -1.75629 24.6206 -8.83272 
8 1 2.25662 25.1617 -9.00893 
9 1 -0.141564 26.5783 -9.07374 
24 1 -1.78115 23.3293 -6.7885 
28 1 1.95552 23.4252 -7.00742 
30 1 0.182039 23.4145 -5.38384 
40 1 -1.76304 27.0351 -7.13544 
41 1 -1.87583 25.2146 -5.32638 
43 1 0.0602012 25.1967 -7.04189 
44 1 1.89752 26.9132 -7.21742 
45 1 1.84534 25.3039 -5.42018 
46 1 0.0150435 27.0264 -5.41173 
94 1 -1.7822 23.4335 -3.61079 
98 1 1.82995 23.2868 -3.44698 
116 1 -1.89111 27.1821 -3.55245 
119 1 -0.0376471 25.2651 -3.60148 
120 1 1.79147 27.096 -3.59303 
5 1 3.50773 23.1442 -8.89615 
10 1 4.15582 26.7226 -8.97944 
32 1 5.26863 23.4173 -7.09544 
34 1 3.59758 23.3684 -5.27045 
35 1 7.29429 23.2688 -5.08903 
47 1 3.83457 25.303 -7.0432 
48 1 5.75104 26.8207 -6.91231 
49 1 5.52645 25.228 -5.03463 
50 1 3.72057 26.9461 -5.42413 
51 1 7.28161 26.9958 -4.81626 
102 1 5.39584 23.2784 -3.61058 
106 1 8.99434 23.2575 -2.84153 
123 1 3.62034 25.1046 -3.66663 
124 1 5.37518 27.1478 -3.41614 
127 1 7.32919 24.9729 -3.33083 
128 1 9.16529 27.289 -2.81872 
52 1 -5.2696 28.7618 -5.48737 
53 1 -3.50287 28.6792 -7.33929 
56 1 -3.5612 30.5639 -5.51321 
132 1 -7.29392 28.7399 -3.76796 
133 1 -5.28934 30.6347 -3.68631 
136 1 -3.683 28.8637 -3.46583 
152 1 -3.45902 32.4898 -3.75445 
11 1 -1.73892 28.4413 -9.2363 
12 1 1.96665 27.9415 -9.45973 
54 1 -1.68263 30.4358 -7.35945 
55 1 -1.66393 28.7749 -5.48399 
57 1 -0.0217358 28.6727 -7.54861 
58 1 1.74028 30.2716 -7.34693 
59 1 1.70215 28.5828 -5.5139 
60 1 -0.0670371 30.5899 -5.51516 
64 1 -1.63162 32.3338 -5.54908 
65 1 1.59339 32.352 -5.41039 
137 1 -1.85554 30.5797 -3.69615 
140 1 -0.0193221 28.9256 -3.55741 
141 1 1.66869 30.5693 -3.61964 
154 1 -0.0742494 32.4332 -3.66456 
61 1 3.63121 28.6255 -7.29881 
62 1 5.36965 28.8099 -5.33919 
63 1 3.48278 30.7111 -5.66641 
144 1 3.50817 28.8768 -3.73977 
145 1 5.29702 30.6738 -3.87002 
148 1 7.13694 28.9667 -3.25555 
157 1 3.44197 32.2387 -3.83285 
67 1 -3.53082 16.2637 -1.45279 
160 1 -3.7257 16.4314 1.88762 
69 1 -0.313654 15.9944 -1.61413 
159 1 -1.805 16.1201 0.366672 
161 1 1.63952 16.0395 0.0481583 
162 1 0.05425 16.1963 1.74764 
70 1 3.37015 15.9544 -1.75123 
163 1 3.35366 15.998 1.82259 
72 1 -5.76061 18.1642 -1.33119 
73 1 -7.51137 20.0955 -1.60825 
77 1 -3.75577 19.7666 -1.56182 
88 1 -9.0301 22.2456 -1.55979 
91 1 -5.4561 21.6854 -1.67264 
164 1 -5.60426 19.9458 0.209183 
165 1 -5.42946 18.3427 2.22164 
166 1 -7.2054 20.09 1.89468 
167 1 -3.81184 17.9412 0.179551 
170 1 -3.54206 19.8187 1.77061 
181 1 -9.03337 22.1907 2.09677 
182 1 -7.33584 21.8082 0.238274 
184 1 -5.27393 21.7106 1.97956 
186 1 -3.64566 21.6436 -0.108007 
76 1 -1.91226 17.9856 -1.58103 
80 1 1.64606 17.8652 -1.7584 
81 1 0.0068252 19.6199 -1.71025 
95 1 -1.74575 21.5697 -1.81602 
99 1 1.68396 21.4548 -1.89717 
168 1 -1.86413 19.7713 0.0288908 
169 1 -1.81175 18.1149 1.76245 
171 1 -0.102102 18.0587 0.0261338 
172 1 1.67456 19.7802 0.112763 
173 1 1.7808 17.9032 1.74924 
174 1 0.0855096 19.8632 1.87334 
188 1 -1.85531 21.6768 1.69128 
190 1 -0.0843264 21.5357 -0.0296815 
192 1 1.9308 21.5359 1.87614 
84 1 5.17403 17.7474 -1.76583 
85 1 3.49225 19.5728 -1.86084 
86 1 6.91226 19.4502 -1.68057 
103 1 5.35369 21.3782 -1.72416 
107 1 8.92222 20.9309 -1.63121 
175 1 3.37124 17.7485 -0.0223984 
176 1 5.13634 19.7434 0.028883 
177 1 5.18756 17.8248 1.70736 
178 1 3.63398 19.6768 1.90567 
179 1 7.15601 19.509 1.68315 
194 1 3.45156 21.4672 -0.0383063 
196 1 5.28418 21.5001 1.78828 
198 1 6.99091 21.3518 0.017017 
200 1 9.14131 21.1938 0.996808 
92 1 -7.08971 23.5775 -1.63588 
96 1 -3.46138 23.557 -1.83377 
110 1 -9.07548 25.3975 -1.7767 
113 1 -5.29082 25.2729 -1.82114 
114 1 -7.20022 26.9745 -1.80896 
118 1 -3.56096 27.0966 -1.70013 
180 1 -9.04119 23.9811 0.221289 
183 1 -5.36982 23.5163 0.0331493 
185 1 -7.07562 23.5695 1.89564 
189 1 -3.55522 23.405 1.82594 
202 1 -8.91071 26.8436 0.11296 
203 1 -8.90878 25.3198 2.22343 
204 1 -7.06793 25.2073 0.048534 
205 1 -5.46614 27.1059 0.0838601 
206 1 -5.3299 25.3077 1.91427 
207 1 -7.20575 26.9638 1.91417 
208 1 -3.60276 25.3035 -0.00203912 
211 1 -3.4082 27.1132 1.83216 
100 1 -0.0503181 23.4066 -1.7296 
117 1 -1.71835 25.3949 -1.74635 
121 1 1.79502 25.2256 -1.6654 
122 1 0.0511919 27.1606 -1.9076 
187 1 -1.6942 23.5588 -0.0458048 
191 1 1.80004 23.4574 0.0962998 
193 1 0.0613433 23.5927 1.66015 
209 1 -1.5886 27.181 -0.0380603 
210 1 -1.71271 25.3278 1.77254 
212 1 0.0739087 25.2864 -0.096272 
213 1 1.69252 27.0975 -0.00842271 
214 1 1.83431 25.2897 1.84035 
215 1 -0.0532072 27.1536 1.74733 
104 1 3.50847 23.3899 -1.70172 
108 1 6.86994 23.2694 -1.68113 
125 1 5.32513 25.1517 -1.88847 
126 1 3.40015 27.1199 -1.91283 
129 1 8.77585 25.2027 -1.27282 
130 1 7.02906 26.976 -1.64335 
195 1 5.21947 23.2744 0.057225 
197 1 3.62482 23.5237 1.81201 
199 1 8.79277 23.0066 -0.311467 
201 1 7.18306 23.4084 1.49683 
216 1 3.61501 25.2912 -0.103097 
217 1 5.3263 27.1615 -0.0128665 
218 1 5.4072 25.2918 1.83689 
219 1 3.62788 26.9972 1.86724 
220 1 6.97612 25.2007 0.127746 
221 1 8.81668 27.4551 0.0526003 
222 1 8.99792 25.3717 1.23948 
223 1 7.04894 27.3358 1.74093 
131 1 -9.07718 28.4759 -1.70806 
134 1 -5.38218 28.7023 -1.74481 
135 1 -7.32829 30.4536 -1.98303 
139 1 -3.54593 30.8054 -1.87635 
151 1 -5.35477 32.2599 -1.87579 
224 1 -9.19198 28.1514 2.10118 
225 1 -7.29985 28.8135 -0.0455646 
226 1 -5.53216 30.6095 -0.100994 
227 1 -5.45256 28.8904 1.67074 
228 1 -7.47747 30.351 1.67341 
229 1 -3.60232 29.0633 -0.0875542 
232 1 -3.7379 30.8181 1.76294 
244 1 -5.62695 32.1998 1.48282 
245 1 -3.61297 32.6207 -0.0233589 
138 1 -1.72373 29.0107 -1.82217 
142 1 1.80779 28.8734 -1.77157 
143 1 -0.163521 30.9484 -1.79035 
153 1 -1.94306 32.6552 -1.96969 
155 1 1.89842 32.7345 -2.00948 
230 1 -1.7939 30.8599 0.113677 
231 1 -1.8107 29.0015 1.81952 
233 1 0.0423476 29.1597 -0.0658805 
234 1 1.75901 30.7767 0.019407 
235 1 1.74768 28.9856 1.79254 
236 1 0.008768 30.8328 1.73332 
247 1 -1.90097 32.7647 1.74456 
248 1 -0.112635 32.512 2.32242e-005 
250 1 1.73667 32.7545 1.68275 
146 1 5.11007 29.0521 -1.9009 
147 1 3.37932 30.6699 -1.87252 
149 1 8.96426 29.6092 -1.12289 
150 1 6.84581 31.0127 -1.64273 
158 1 4.86759 32.6476 -2.0508 
237 1 3.49667 28.9453 0.0638205 
238 1 5.05627 30.8155 -0.161387 
239 1 5.31388 28.9715 1.73277 
240 1 3.52921 30.9019 1.68046 
241 1 6.85694 28.9933 -0.122204 
242 1 9.06919 29.5741 1.43149 
243 1 6.8487 30.9181 1.48264 
252 1 3.3342 32.7388 -0.0142038 
253 1 5.14027 32.6396 1.52429 
156 1 -0.122046 34.2619 -1.79695 
246 1 -1.90778 34.2847 -0.0237844 
249 1 1.66854 34.4334 -0.164766 
251 1 -0.112818 34.4293 1.65662 
254 1 -1.73579 16.2785 3.50994 
255 1 1.73846 16.3307 3.54086 
256 1 -5.54887 19.9582 3.77578 
257 1 -3.58446 18.1212 3.72631 
260 1 -3.744 19.88 5.54862 
269 1 -7.15755 21.952 3.95195 
271 1 -5.33283 21.7722 5.65341 
273 1 -3.54588 21.5294 3.66163 
332 1 -3.52519 21.7408 7.33425 
258 1 -1.65098 19.8156 3.64032 
259 1 -1.84431 17.9282 5.32945 
261 1 -0.000219614 18.0248 3.56272 
262 1 1.81487 19.9145 3.64674 
263 1 1.68432 18.2025 5.50609 
264 1 0.204804 20.0511 5.27853 
275 1 -1.65695 21.5651 5.52414 
277 1 0.0449293 21.7573 3.40661 
279 1 1.9698 21.8901 5.40989 
329 1 -1.50346 19.6903 6.9647 
330 1 1.78594 20.1122 7.11437 
334 1 -1.71155 21.3036 8.9185 
336 1 0.0234143 21.5971 7.20637 
338 1 2.17328 21.9578 9.08099 
265 1 3.76946 17.9738 3.87686 
266 1 5.48054 19.8714 3.58173 
267 1 3.76623 19.859 5.3856 
281 1 3.6317 21.6654 3.56655 
283 1 5.59807 21.7304 5.12872 
285 1 7.17444 21.5838 3.20645 
340 1 3.83111 21.6286 7.01173 
268 1 -8.86553 23.8741 4.39268 
270 1 -5.08757 23.4847 3.72972 
272 1 -6.95799 23.8168 5.78494 
276 1 -3.46673 23.4499 5.49984 
288 1 -8.90901 26.7205 4.23954 
289 1 -6.89146 25.266 3.8443 
290 1 -5.26118 27.3234 3.52645 
291 1 -5.09994 25.3015 5.42545 
292 1 -6.97854 26.9705 5.51162 
293 1 -3.55177 25.3666 3.45958 
296 1 -3.58235 27.276 5.45289 
331 1 -4.8803 23.8402 7.54443 
335 1 -2.86518 23.6188 9.08848 
343 1 -5.21825 27.0081 7.2973 
344 1 -3.19888 25.4616 7.23875 
347 1 -3.17787 27.416 8.82468 
274 1 -1.91869 23.3739 3.62552 
278 1 1.86029 23.3279 3.50589 
280 1 -0.0147996 23.5502 5.22969 
294 1 -1.70528 27.2125 3.47435 
295 1 -1.88622 25.4298 5.25056 
297 1 -0.100336 25.3282 3.54021 
298 1 1.71487 27.1455 3.56911 
299 1 1.95946 25.2307 5.20641 
300 1 0.088614 27.0253 5.27652 
333 1 -1.60051 23.4776 6.95668 
337 1 1.70717 23.6711 7.13468 
339 1 -0.11625 23.4717 8.85491 
345 1 -1.69075 27.4523 6.99363 
346 1 -1.47479 25.757 8.95123 
348 1 0.0620752 25.4995 6.91528 
349 1 2.05634 27.1574 6.97218 
350 1 1.61702 25.5416 8.83379 
351 1 0.1647 27.5171 8.86423 
282 1 5.50382 23.3105 3.38125 
284 1 3.76904 23.6003 5.35487 
286 1 9.0927 23.5183 2.99228 
287 1 7.48532 23.4198 5.12848 
301 1 3.67374 25.1811 3.5107 
302 1 5.54129 27.2625 3.55117 
303 1 5.63809 25.3231 5.17346 
304 1 3.76149 27.0782 5.00847 
305 1 7.42182 25.3886 3.32905 
306 1 8.92857 27.2962 3.20848 
307 1 7.32929 27.0827 5.13485 
341 1 5.53322 23.576 6.92463 
342 1 3.63424 24.0173 8.89271 
352 1 3.77002 25.3806 6.95566 
353 1 5.26869 27.2052 6.84468 
354 1 3.52219 27.2113 8.78563 
308 1 -7.15262 28.6312 3.63835 
309 1 -5.67677 30.664 3.4786 
310 1 -5.33938 28.9338 5.52797 
311 1 -3.55375 29.1127 3.57845 
314 1 -3.81524 30.927 5.35301 
324 1 -3.77576 32.5978 3.51045 
355 1 -3.45949 29.2351 7.17978 
312 1 -1.82397 30.9764 3.36689 
313 1 -1.68962 29.0681 5.23259 
315 1 0.0170806 29.0419 3.50402 
316 1 2.04825 31.0326 3.47967 
317 1 1.94908 29.1121 5.15346 
318 1 0.151754 30.9219 5.0237 
325 1 -1.66639 32.6902 5.06454 
326 1 -0.0364099 32.6872 3.28828 
327 1 1.71844 32.7655 5.11985 
356 1 -1.67717 31.0705 6.88539 
357 1 -1.33073 29.5187 8.8028 
358 1 0.185233 29.2299 6.87249 
359 1 1.69516 31.0573 6.90256 
360 1 1.89653 29.4116 8.60722 
319 1 3.58466 29.0201 3.47499 
320 1 5.26511 30.9702 3.49099 
321 1 5.42366 29.1619 5.25479 
322 1 3.67981 31.0803 5.41818 
323 1 7.24031 29.2131 3.43796 
328 1 3.63404 32.805 3.32421 
361 1 3.57448 29.1033 6.87048 
