ITEM: TIMESTEP
80
ITEM: NUMBER OF ATOMS
1358
ITEM: BOX BOUNDS pp pp pp
-10 10
0 50
-10 10
ITEM: ATOMS id type x y z 
2 1 -3.66255 1.94306 -8.91935 
7 1 -3.68116 5.4285 -8.8649 
71 1 -5.60247 1.91726 -7.35212 
72 1 -5.64056 0.277953 -5.5062 
73 1 -7.34068 2.1083 -5.55611 
74 1 -3.85307 0.24702 -7.12179 
77 1 -3.62568 2.03313 -5.27345 
87 1 -5.57307 5.59454 -7.35927 
88 1 -5.38313 3.68606 -5.49403 
89 1 -7.2356 5.26394 -5.58458 
90 1 -3.6715 3.66831 -7.20763 
93 1 -3.65537 5.55682 -5.63725 
295 1 -8.86808 1.90251 -3.60537 
297 1 -7.13758 0.273018 -3.72279 
298 1 -5.39059 2.03884 -3.69692 
301 1 -3.75104 0.1663 -3.67152 
317 1 -8.7351 5.56577 -3.67979 
319 1 -7.16877 3.74688 -3.63256 
320 1 -5.38565 5.4708 -3.75968 
323 1 -3.53581 3.94841 -3.62346 
1 1 -1.85374 0.167329 -8.85532 
3 1 1.80533 0.160312 -8.73159 
4 1 0.0256273 1.89128 -8.9302 
6 1 -1.79459 3.61645 -8.84941 
8 1 1.78479 3.64371 -8.86525 
9 1 0.0400227 5.32155 -8.85347 
75 1 -1.88898 1.90914 -7.09358 
76 1 -1.88662 0.246669 -5.31916 
78 1 0.0247938 0.229278 -7.02481 
79 1 1.79701 1.93166 -7.145 
80 1 1.89918 0.246552 -5.41733 
81 1 -0.0216205 2.00355 -5.35483 
91 1 -1.75154 5.43621 -7.13193 
92 1 -1.79745 3.80618 -5.33698 
94 1 -0.0409653 3.59762 -7.05792 
95 1 1.85353 5.40839 -7.04925 
96 1 1.84746 3.67393 -5.38164 
97 1 0.0457763 5.48458 -5.30418 
302 1 -1.85184 1.99071 -3.6101 
305 1 -0.000139039 0.214001 -3.69635 
306 1 1.81144 1.93659 -3.57539 
324 1 -1.8386 5.63075 -3.5579 
327 1 0.0242587 3.76004 -3.6353 
328 1 1.76551 5.41515 -3.5311 
5 1 3.72234 1.94567 -8.94254 
10 1 3.70896 5.42718 -8.80964 
82 1 3.75677 0.322332 -7.16448 
83 1 5.68105 1.98017 -7.28349 
84 1 5.5012 0.292528 -5.51179 
85 1 3.69276 2.02802 -5.4347 
86 1 7.40784 1.91668 -5.50213 
98 1 3.66855 3.6711 -7.19273 
99 1 5.59871 5.45695 -7.27875 
100 1 5.46095 3.73732 -5.50417 
101 1 3.61521 5.41362 -5.258 
102 1 7.27216 5.42982 -5.54371 
309 1 3.6834 0.2452 -3.76069 
310 1 5.51491 2.02583 -3.68058 
313 1 7.07432 0.252298 -3.64486 
314 1 8.86161 1.88108 -3.49191 
331 1 3.719 3.65048 -3.62174 
332 1 5.41263 5.42269 -3.50698 
335 1 7.26441 3.73519 -3.75158 
336 1 8.9419 5.48743 -3.53375 
12 1 -3.50617 8.84309 -8.73707 
103 1 -5.46742 8.9689 -7.15699 
104 1 -5.47701 7.22794 -5.42739 
105 1 -7.08573 9.08694 -5.34393 
106 1 -3.61934 7.28784 -7.13471 
109 1 -3.54617 9.02865 -5.4026 
120 1 -5.28816 10.8931 -5.44434 
122 1 -3.63639 10.7702 -7.18962 
339 1 -8.75214 9.18051 -3.58636 
341 1 -7.09868 7.29024 -3.67484 
342 1 -5.32439 9.18107 -3.62451 
345 1 -3.63874 7.35162 -3.61817 
363 1 -7.10702 10.8595 -3.6539 
367 1 -3.4441 10.8287 -3.45647 
11 1 -1.69892 7.15314 -8.88349 
13 1 1.80034 7.16576 -8.8333 
14 1 0.0641233 8.99825 -9.01901 
16 1 -1.77618 10.7123 -8.80922 
18 1 1.88095 10.7284 -8.76042 
107 1 -1.57437 9.02651 -7.1352 
108 1 -1.80794 7.2518 -5.4001 
110 1 0.0932871 7.20694 -7.0661 
111 1 1.60951 9.04481 -7.08366 
112 1 1.81249 7.27976 -5.29067 
113 1 -0.0653617 9.04944 -5.25091 
124 1 -1.90154 10.7941 -5.40587 
126 1 -0.0487115 10.9406 -6.94203 
128 1 1.84805 10.8603 -5.40228 
346 1 -1.79117 9.07087 -3.56168 
349 1 -0.0713858 7.21707 -3.48153 
350 1 1.7727 9.07452 -3.63895 
371 1 0.0457475 10.986 -3.74575 
15 1 3.71052 8.73056 -8.74838 
114 1 3.63302 7.07737 -7.03695 
115 1 5.39033 8.97188 -7.05784 
116 1 5.3914 7.14577 -5.40072 
117 1 3.56693 9.0063 -5.41541 
118 1 7.21546 9.0664 -5.40039 
130 1 3.65785 10.8224 -7.11785 
132 1 5.51103 10.8956 -5.49906 
353 1 3.63091 7.28214 -3.56615 
354 1 5.39681 9.08516 -3.68196 
357 1 7.10468 7.23284 -3.7402 
358 1 8.93311 8.98406 -3.66335 
375 1 3.70159 10.8718 -3.68031 
379 1 7.22088 10.7838 -3.61852 
17 1 -3.4777 12.5622 -8.86777 
22 1 -3.46967 16.2196 -8.83838 
119 1 -5.44492 12.6685 -7.14273 
121 1 -7.12659 12.784 -5.30154 
125 1 -3.52413 12.5965 -5.35008 
135 1 -5.43228 16.1529 -7.229 
136 1 -5.33171 14.5161 -5.4293 
137 1 -7.17541 16.1525 -5.37947 
138 1 -3.5976 14.3844 -7.22753 
141 1 -3.71581 16.3237 -5.40168 
361 1 -8.96731 12.6329 -3.66451 
364 1 -5.34494 12.6105 -3.70361 
383 1 -8.88573 16.4146 -3.6089 
385 1 -7.13179 14.4254 -3.57346 
386 1 -5.35563 16.3296 -3.55709 
389 1 -3.73866 14.4474 -3.6097 
19 1 -0.0563108 12.4228 -8.9066 
21 1 -1.62039 14.4387 -8.96706 
23 1 1.74795 14.3473 -8.93194 
24 1 0.00530484 16.2001 -8.8353 
123 1 -1.80316 12.7262 -7.09314 
127 1 1.79948 12.6538 -7.15944 
129 1 0.00542062 12.8324 -5.47579 
139 1 -1.78339 16.1966 -7.06501 
140 1 -1.94201 14.6068 -5.33332 
142 1 -0.00658562 14.5084 -7.1228 
143 1 1.72307 16.2021 -7.09942 
144 1 1.81785 14.4192 -5.37744 
145 1 0.0871888 16.2139 -5.24321 
368 1 -1.73714 12.7498 -3.78326 
372 1 1.88506 12.6307 -3.59637 
390 1 -1.82582 16.2999 -3.5916 
393 1 -0.0329782 14.4918 -3.61742 
394 1 1.84267 16.2732 -3.54084 
20 1 3.54145 12.6462 -8.79115 
25 1 3.49737 16.444 -8.78035 
131 1 5.51161 12.5875 -7.3712 
133 1 3.67355 12.6782 -5.45301 
134 1 7.23679 12.5949 -5.54246 
146 1 3.65105 14.4754 -7.16298 
147 1 5.5675 16.2006 -7.422 
148 1 5.39252 14.567 -5.40526 
149 1 3.57613 16.231 -5.42852 
150 1 7.15668 16.2381 -5.30514 
376 1 5.38332 12.6423 -3.69981 
380 1 8.75034 12.6238 -3.71033 
397 1 3.59769 14.4314 -3.58674 
398 1 5.37408 16.2915 -3.52368 
401 1 7.01338 14.4231 -3.49616 
402 1 8.83161 16.1036 -3.58219 
27 1 -3.4093 19.9708 -8.89146 
151 1 -5.45425 19.9046 -7.2366 
152 1 -5.42519 18.1666 -5.35311 
153 1 -7.41893 19.7345 -5.522 
154 1 -3.73083 17.9854 -7.24312 
157 1 -3.53403 19.7222 -5.57075 
168 1 -5.28765 21.6129 -5.30835 
170 1 -3.54146 21.7023 -7.10859 
405 1 -8.92301 19.8354 -3.62521 
407 1 -7.13288 18.0696 -3.66482 
408 1 -5.33757 19.8662 -3.65735 
411 1 -3.56492 18.1443 -3.64885 
429 1 -7.17395 21.6472 -3.75736 
433 1 -3.58065 21.4625 -3.49363 
26 1 -1.66539 17.9733 -8.74993 
28 1 1.6201 17.9631 -8.76752 
29 1 -0.0917167 19.8181 -8.79804 
31 1 -1.77423 21.6883 -8.99222 
33 1 1.70741 21.5911 -8.8451 
155 1 -1.79379 19.8213 -7.06408 
156 1 -1.75127 17.9313 -5.36294 
158 1 0.0222154 18.0388 -6.96709 
159 1 1.79062 19.7558 -7.15611 
160 1 1.85791 18.055 -5.38451 
161 1 -0.038614 19.9097 -5.30182 
172 1 -1.91037 21.6913 -5.21948 
174 1 -0.0948569 21.5642 -7.07195 
176 1 1.79299 21.6683 -5.48431 
412 1 -1.70781 19.7479 -3.58598 
415 1 0.175035 18.111 -3.59732 
416 1 1.81935 19.9409 -3.65664 
437 1 0.0310918 21.7434 -3.65086 
30 1 3.57101 19.643 -8.95788 
162 1 3.70914 18.1441 -6.99737 
163 1 5.49255 19.8951 -7.2485 
164 1 5.48837 17.9405 -5.4887 
165 1 3.57436 19.9127 -5.33531 
166 1 7.14678 19.824 -5.37332 
178 1 3.60398 21.5733 -7.16149 
180 1 5.37113 21.743 -5.37724 
419 1 3.56766 18.0065 -3.62367 
420 1 5.39283 19.8093 -3.66912 
423 1 7.15168 18.1072 -3.52306 
424 1 8.8075 20.0011 -3.47928 
441 1 3.63799 21.7894 -3.65012 
445 1 7.09273 21.7476 -3.53996 
32 1 -3.60686 23.5527 -8.78098 
37 1 -3.5038 26.9237 -8.90979 
167 1 -5.46799 23.1921 -7.11355 
169 1 -7.16709 23.5518 -5.48797 
173 1 -3.58337 23.4791 -5.26954 
183 1 -5.30297 27.1147 -7.1694 
184 1 -5.4516 25.2545 -5.47967 
185 1 -7.28316 27.1562 -5.40013 
186 1 -3.67703 25.1611 -7.09483 
189 1 -3.72471 27.051 -5.3214 
427 1 -8.78451 23.5048 -3.61893 
430 1 -5.37075 23.4153 -3.5886 
449 1 -8.94741 26.9183 -3.58673 
451 1 -7.06613 25.2242 -3.73569 
452 1 -5.51698 27.1336 -3.61857 
455 1 -3.72538 25.3009 -3.59105 
34 1 -0.0988222 23.4062 -8.83781 
36 1 -1.7379 25.267 -8.8603 
38 1 1.79556 25.2494 -8.86666 
39 1 -0.0444433 27.054 -8.79886 
171 1 -1.70075 23.4685 -7.00503 
175 1 1.72966 23.468 -7.19533 
177 1 0.0716705 23.4859 -5.37522 
187 1 -1.84834 26.9791 -6.99137 
188 1 -1.8559 25.2521 -5.25608 
190 1 0.00795855 25.3045 -7.0649 
191 1 1.76098 27.0932 -7.07545 
192 1 1.81898 25.3365 -5.31267 
193 1 0.00465169 27.0013 -5.25689 
434 1 -1.8184 23.4008 -3.42762 
438 1 1.89232 23.4457 -3.56497 
456 1 -1.87161 27.089 -3.60914 
459 1 0.0516759 25.2138 -3.53754 
460 1 1.74942 27.0608 -3.53324 
35 1 3.60742 23.5212 -8.88283 
40 1 3.49278 27.0382 -8.69864 
179 1 5.3888 23.3979 -7.22276 
181 1 3.53126 23.52 -5.41609 
182 1 7.20837 23.5 -5.4423 
194 1 3.53968 25.3029 -7.05627 
195 1 5.4757 27.124 -7.16454 
196 1 5.39146 25.2322 -5.47828 
197 1 3.6257 27.1141 -5.36601 
198 1 7.12064 27.0497 -5.36319 
442 1 5.46977 23.569 -3.67414 
446 1 8.93263 23.4452 -3.56402 
463 1 3.5763 25.1755 -3.50428 
464 1 5.34734 26.831 -3.62927 
467 1 7.31842 25.2457 -3.60259 
468 1 8.7711 27.1999 -3.49039 
42 1 -3.70601 30.5446 -8.89128 
199 1 -5.47221 30.4587 -7.21927 
200 1 -5.45993 28.8724 -5.39281 
201 1 -7.16795 30.6546 -5.45017 
202 1 -3.48582 28.7522 -7.13418 
205 1 -3.67411 30.6825 -5.47813 
216 1 -5.34684 32.429 -5.31892 
218 1 -3.77107 32.4633 -7.28731 
471 1 -8.94647 30.8425 -3.77252 
473 1 -7.33721 28.9088 -3.668 
474 1 -5.35091 30.5996 -3.56829 
477 1 -3.62874 28.9134 -3.62002 
495 1 -7.13997 32.4786 -3.62082 
499 1 -3.53687 32.4674 -3.62969 
41 1 -1.67883 28.8921 -8.82224 
43 1 1.64321 28.9219 -8.79779 
44 1 -0.0381962 30.7273 -8.71308 
46 1 -1.80861 32.5952 -8.8593 
48 1 1.82842 32.3647 -8.63995 
203 1 -1.93209 30.7605 -7.10779 
204 1 -1.86174 28.9136 -5.3315 
206 1 -0.102297 28.828 -6.95938 
207 1 1.85616 30.5515 -7.04483 
208 1 1.82981 28.8174 -5.39926 
209 1 -0.0132537 30.6417 -5.31419 
220 1 -1.7589 32.5035 -5.34401 
222 1 0.0426117 32.3766 -7.00901 
224 1 1.86464 32.4087 -5.37367 
478 1 -1.77627 30.694 -3.57563 
481 1 -0.0154574 28.8853 -3.55842 
482 1 1.81027 30.6748 -3.58229 
503 1 0.069255 32.4442 -3.52561 
45 1 3.76786 30.6246 -8.89171 
210 1 3.67891 28.8633 -7.17045 
211 1 5.55268 30.6366 -7.14382 
212 1 5.43926 28.9132 -5.4319 
213 1 3.59346 30.7663 -5.43854 
214 1 7.30441 30.6973 -5.47288 
226 1 3.86362 32.4575 -7.26652 
228 1 5.53475 32.4524 -5.42814 
485 1 3.51047 28.9056 -3.71131 
486 1 5.35992 30.6454 -3.69083 
489 1 7.03202 28.8548 -3.63264 
490 1 8.81245 30.4722 -3.4515 
507 1 3.64769 32.53 -3.66781 
511 1 7.27554 32.4743 -3.67044 
47 1 -3.60285 34.4337 -8.8087 
52 1 -3.6097 37.9899 -8.83963 
215 1 -5.3913 34.2932 -7.12702 
217 1 -7.10554 34.2461 -5.37359 
221 1 -3.50845 34.2666 -5.45478 
231 1 -5.46644 38.0443 -7.13904 
232 1 -5.46626 36.0168 -5.40904 
233 1 -7.04507 37.8259 -5.38578 
234 1 -3.695 36.1406 -7.12995 
237 1 -3.69508 38.0024 -5.49387 
493 1 -8.83296 34.1153 -3.51003 
496 1 -5.29422 34.3314 -3.61312 
515 1 -8.84686 37.9013 -3.79794 
517 1 -7.13293 36.1571 -3.52303 
518 1 -5.3729 37.9202 -3.63528 
521 1 -3.63043 36.1342 -3.64221 
49 1 0.122655 34.2607 -8.8695 
51 1 -1.80094 36.1445 -8.77173 
53 1 1.70575 36.1235 -8.76035 
54 1 0.0208366 37.8407 -8.90473 
219 1 -1.6474 34.241 -7.09691 
223 1 1.92465 34.1434 -7.12988 
225 1 0.0445306 34.2723 -5.3756 
235 1 -1.85798 37.9543 -7.10635 
236 1 -1.92955 36.0981 -5.40787 
238 1 -0.0500131 36.0347 -7.03376 
239 1 1.75016 37.8446 -7.02213 
240 1 1.84116 35.9321 -5.48871 
241 1 -0.0971224 37.8753 -5.43543 
500 1 -1.81698 34.2652 -3.54892 
504 1 1.79228 34.1852 -3.60031 
522 1 -1.79285 37.8076 -3.65444 
525 1 -0.0209128 36.0223 -3.74342 
526 1 1.60573 37.8179 -3.74406 
50 1 3.56712 34.3827 -8.88363 
55 1 3.56176 37.8869 -8.88857 
227 1 5.46955 34.2529 -7.17481 
229 1 3.66613 34.3088 -5.50148 
230 1 7.26878 34.3358 -5.43827 
242 1 3.74834 36.2146 -7.27228 
243 1 5.51972 37.9624 -7.26812 
244 1 5.37899 36.102 -5.51777 
245 1 3.53847 37.841 -5.37799 
246 1 7.20488 37.7102 -5.50173 
508 1 5.29581 34.3151 -3.78392 
512 1 8.90019 34.4381 -3.61541 
529 1 3.43172 36.1262 -3.59696 
530 1 5.3587 37.7494 -3.62062 
533 1 7.09568 36.0672 -3.67038 
534 1 8.87069 37.7603 -3.57102 
57 1 -3.49996 41.2975 -8.97499 
247 1 -5.41736 41.391 -7.17909 
248 1 -5.45958 39.7864 -5.38119 
249 1 -7.30068 41.5274 -5.55039 
250 1 -3.57159 39.7436 -7.13191 
253 1 -3.63348 41.4381 -5.30661 
264 1 -5.42957 43.1792 -5.37419 
266 1 -3.78456 43.2468 -7.22414 
537 1 -8.93073 41.6295 -3.52936 
539 1 -7.23017 39.7728 -3.75858 
540 1 -5.34905 41.5217 -3.54425 
543 1 -3.53886 39.6481 -3.64286 
561 1 -7.11876 43.145 -3.62636 
565 1 -3.59069 43.2597 -3.61967 
56 1 -1.69695 39.6185 -8.9646 
58 1 1.72186 39.744 -8.88027 
59 1 0.0430817 41.445 -8.77989 
61 1 -1.89426 43.1745 -8.88709 
63 1 1.90513 43.2838 -8.93919 
251 1 -1.90674 41.484 -7.05317 
252 1 -1.7355 39.7208 -5.29086 
254 1 -0.0791935 39.6716 -7.15697 
255 1 1.85125 41.5336 -7.11605 
256 1 1.71024 39.7361 -5.44967 
257 1 -0.00863989 41.6299 -5.52621 
268 1 -1.84722 43.2402 -5.34891 
270 1 -0.0368785 43.2114 -7.25899 
272 1 1.79539 43.2336 -5.42862 
544 1 -1.76656 41.4579 -3.57964 
547 1 0.119618 39.8219 -3.70486 
548 1 1.86359 41.5237 -3.59347 
569 1 -0.114559 43.2445 -3.55363 
60 1 3.6186 41.5896 -8.79848 
258 1 3.51103 39.6813 -7.0994 
259 1 5.4277 41.357 -7.14764 
260 1 5.38604 39.6048 -5.41391 
261 1 3.64749 41.473 -5.30486 
262 1 7.14753 41.6041 -5.3812 
274 1 3.74021 43.2982 -7.09768 
276 1 5.42221 43.2421 -5.36032 
551 1 3.50491 39.4925 -3.63426 
552 1 5.26129 41.3509 -3.60637 
555 1 7.12838 39.5565 -3.70137 
556 1 8.77408 41.4492 -3.58508 
573 1 3.58549 43.3347 -3.58475 
577 1 7.0064 43.3179 -3.53715 
62 1 -3.52355 45.1287 -8.96122 
67 1 -3.75778 48.4458 -8.76316 
263 1 -5.5203 44.9627 -7.26148 
265 1 -7.18565 44.7381 -5.4475 
269 1 -3.66491 44.9965 -5.36511 
279 1 -5.78385 48.5466 -7.40948 
280 1 -5.53442 46.7738 -5.47674 
281 1 -7.43683 48.5488 -5.70863 
282 1 -3.77155 46.7669 -7.13381 
285 1 -3.73696 48.546 -5.45358 
559 1 -8.78369 44.9234 -3.5345 
562 1 -5.41188 45.0356 -3.65319 
581 1 -8.85701 48.574 -3.73345 
583 1 -7.27684 46.7501 -3.71235 
584 1 -5.57005 48.4138 -3.70123 
587 1 -3.69881 46.8478 -3.6426 
64 1 -0.00454264 45.0177 -8.69764 
66 1 -1.81519 46.8614 -8.89572 
68 1 1.8379 46.7324 -8.99565 
69 1 0.103408 48.4024 -8.87674 
267 1 -1.89107 45.0416 -7.05027 
271 1 1.79116 45.0007 -7.00765 
273 1 -0.0712657 44.9331 -5.34098 
283 1 -1.74412 48.502 -7.05729 
284 1 -1.87799 46.7876 -5.30909 
286 1 -0.00150687 46.7182 -7.11382 
287 1 1.94602 48.3825 -7.04202 
288 1 1.96475 46.6825 -5.36611 
289 1 0.0471714 48.3484 -5.37838 
566 1 -1.86708 45.1272 -3.4989 
570 1 1.66585 44.9383 -3.62057 
588 1 -1.84317 48.5315 -3.56605 
591 1 -0.0188318 46.7739 -3.53937 
592 1 1.78337 48.4947 -3.63855 
65 1 3.61597 45.1256 -8.75225 
70 1 3.64675 48.5624 -8.95238 
275 1 5.56613 44.9125 -7.17218 
277 1 3.6932 45.0035 -5.39445 
278 1 7.27722 44.848 -5.35753 
290 1 3.79161 46.7792 -7.24538 
291 1 5.53125 48.4746 -7.31744 
292 1 5.54143 46.6912 -5.50895 
293 1 3.71683 48.4768 -5.45772 
294 1 7.34343 48.7084 -5.59057 
574 1 5.35199 45.1402 -3.51466 
578 1 8.92904 44.9767 -3.62157 
595 1 3.59954 46.7624 -3.58653 
596 1 5.47987 48.4068 -3.73622 
599 1 7.2254 46.731 -3.83014 
600 1 8.90886 48.4228 -3.47997 
296 1 -8.89069 0.193737 -1.78437 
299 1 -5.37622 0.273345 -1.84871 
300 1 -7.0776 1.85468 -1.81685 
304 1 -3.58842 2.06822 -1.98171 
318 1 -8.73829 3.73744 -1.81765 
321 1 -5.40699 3.65128 -1.86696 
322 1 -7.02783 5.53739 -1.76179 
326 1 -3.62217 5.4805 -1.77133 
603 1 -8.67824 1.9879 -0.0301865 
604 1 -8.93822 0.382332 1.87261 
605 1 -7.12473 0.185005 0.0488078 
606 1 -5.38691 2.04253 -0.00238156 
607 1 -5.31884 0.294981 1.88246 
608 1 -7.03961 1.90445 1.77631 
609 1 -3.64863 0.381587 -0.0539568 
612 1 -3.63226 2.07916 1.89968 
625 1 -8.87535 5.49984 -0.0461971 
626 1 -8.93023 3.5686 1.96871 
627 1 -7.12382 3.75882 0.037406 
628 1 -5.31577 5.40798 -0.0435749 
629 1 -5.4274 3.7799 1.81476 
630 1 -7.07797 5.55059 1.78575 
631 1 -3.57593 3.7105 -0.0386074 
634 1 -3.659 5.53937 1.77741 
303 1 -1.80262 0.306763 -1.8514 
307 1 1.85177 0.130566 -1.80255 
308 1 0.00930827 2.041 -1.85489 
325 1 -1.70262 3.81027 -1.81231 
329 1 1.83102 3.75128 -1.78936 
330 1 0.0392565 5.52929 -1.70389 
610 1 -1.83086 2.02987 -0.069465 
611 1 -1.80446 0.328414 1.70202 
613 1 0.0313066 0.275343 -0.0497763 
614 1 1.72257 1.94777 -0.0481783 
615 1 1.87858 0.293236 1.85772 
616 1 -0.0131591 2.00764 1.85804 
632 1 -1.709 5.41434 0.0056993 
633 1 -1.8599 3.75384 1.74138 
635 1 0.111644 3.69051 0.0743975 
636 1 1.79948 5.5501 -0.00784669 
637 1 1.82995 3.78053 1.85 
638 1 -0.0105574 5.49366 1.93646 
311 1 5.17629 0.208113 -1.93213 
312 1 3.51803 1.99569 -1.90335 
315 1 8.94915 0.257087 -1.71058 
316 1 7.15653 1.94649 -1.73061 
333 1 5.37058 3.58322 -1.73318 
334 1 3.62918 5.44741 -1.81287 
337 1 8.93848 3.65633 -1.74604 
338 1 7.12002 5.4638 -1.88271 
617 1 3.51613 0.277837 0.0217759 
618 1 5.30085 1.85805 -0.0121079 
619 1 5.32632 0.228442 1.78968 
620 1 3.59804 2.11029 1.7672 
621 1 7.09027 0.227257 -0.0836843 
622 1 9.04124 1.95049 0.119662 
623 1 8.79674 0.0792064 1.82633 
624 1 7.14104 1.87799 1.72811 
639 1 3.54297 3.73401 0.0103839 
640 1 5.33701 5.53817 -0.0758746 
641 1 5.37261 3.64873 1.77993 
642 1 3.6387 5.4913 1.80049 
643 1 7.02415 3.71347 -0.00334786 
644 1 8.82805 5.39827 0.0896057 
645 1 8.74665 3.70722 1.82467 
646 1 7.08143 5.51679 1.78134 
340 1 -8.81606 7.3093 -1.95688 
343 1 -5.35081 7.2494 -1.95081 
344 1 -6.96284 9.02787 -1.74732 
348 1 -3.57337 9.03823 -1.75219 
362 1 -8.69086 10.7971 -1.80965 
365 1 -5.33875 10.9654 -1.90258 
647 1 -8.76573 9.13501 -0.124209 
648 1 -8.7724 7.28984 1.72877 
649 1 -7.0338 7.28609 -0.011513 
650 1 -5.36192 9.1104 -0.0526202 
651 1 -5.35022 7.27428 1.80623 
652 1 -7.12122 9.1349 1.75104 
653 1 -3.6152 7.23239 -0.109545 
656 1 -3.64954 8.95582 1.64191 
670 1 -8.99151 10.8849 1.67443 
671 1 -6.97986 11.0049 0.0186713 
673 1 -5.30531 10.8938 1.74517 
675 1 -3.67868 10.889 -0.135828 
347 1 -1.82329 7.2956 -1.70696 
351 1 1.78246 7.37901 -1.83163 
352 1 -0.0408317 9.10687 -1.86186 
369 1 -1.73236 10.9221 -1.87713 
373 1 1.76479 10.8429 -1.90517 
654 1 -1.82959 9.13275 -0.0621293 
655 1 -1.85841 7.19394 1.73567 
657 1 -0.0730099 7.30209 0.0356674 
658 1 1.71362 9.00964 0.0503718 
659 1 1.81759 7.23559 1.81418 
660 1 -0.0775454 9.02352 1.74696 
677 1 -1.90517 10.8146 1.70486 
679 1 0.0573001 10.7552 -0.085055 
681 1 1.76764 10.8282 1.78246 
355 1 5.29964 7.35868 -1.77776 
356 1 3.58075 9.14254 -1.80304 
359 1 8.8918 7.23939 -1.8089 
360 1 7.0857 9.04616 -1.78914 
377 1 5.32638 10.8355 -1.8057 
381 1 9.03269 10.7991 -1.85803 
661 1 3.50236 7.312 0.0145109 
662 1 5.26212 9.0603 0.0878463 
663 1 5.36413 7.32584 1.78347 
664 1 3.53703 9.1058 2.05424 
665 1 7.13114 7.22943 -0.0963972 
666 1 8.91255 9.03254 -0.029234 
667 1 8.92083 7.21188 1.80979 
668 1 7.1318 8.989 1.64579 
683 1 3.47072 10.8103 0.0219272 
685 1 5.39413 10.792 1.83572 
687 1 7.09566 10.9416 -0.0808337 
689 1 8.7267 10.9804 1.65659 
366 1 -7.1986 12.629 -1.88681 
370 1 -3.55734 12.7645 -1.82348 
384 1 -8.85634 14.4537 -1.83938 
387 1 -5.46358 14.4114 -1.82283 
388 1 -7.11718 16.1851 -1.85471 
392 1 -3.53523 16.2831 -1.85251 
669 1 -8.83332 12.6519 -0.00128454 
672 1 -5.37052 12.8098 -0.0880627 
674 1 -7.1685 12.6672 1.82063 
678 1 -3.55358 12.5615 1.68163 
691 1 -8.94023 16.2904 -0.004402 
692 1 -8.80413 14.5042 1.80464 
693 1 -7.19798 14.5146 -0.00794634 
694 1 -5.3403 16.1677 0.00252223 
695 1 -5.46165 14.4526 1.74601 
696 1 -6.96805 16.3631 1.82919 
697 1 -3.51963 14.5996 -0.00778633 
700 1 -3.58634 16.2724 1.90675 
374 1 -0.0279821 12.7248 -1.97754 
391 1 -1.80032 14.4869 -1.81244 
395 1 1.75799 14.5316 -1.84947 
396 1 -0.0184711 16.3076 -1.83687 
676 1 -1.65385 12.5602 -0.0947325 
680 1 1.62943 12.6743 -0.0815143 
682 1 -0.0876918 12.4801 1.78486 
698 1 -1.71766 16.3972 0.0105718 
699 1 -1.83326 14.4693 1.72921 
701 1 -0.0876369 14.4678 -0.00421089 
702 1 1.77255 16.1104 -0.0483874 
703 1 1.77042 14.3485 1.68454 
704 1 0.00449169 16.2274 1.8358 
378 1 3.53268 12.6129 -1.72584 
382 1 7.06543 12.5222 -1.92841 
399 1 5.32005 14.4123 -1.83168 
400 1 3.73995 16.2921 -1.76859 
403 1 8.89001 14.4116 -1.94227 
404 1 7.1179 16.3286 -1.7787 
684 1 5.30638 12.5955 -0.0429388 
686 1 3.67083 12.6095 1.75286 
688 1 8.95566 12.7048 -0.180902 
690 1 7.00257 12.693 1.77924 
705 1 3.62081 14.4329 -0.0755441 
706 1 5.45432 16.1735 0.0255796 
707 1 5.42131 14.4081 1.77521 
708 1 3.5357 16.1539 1.77238 
709 1 7.1139 14.3002 -0.208552 
710 1 8.75484 16.3687 -0.110204 
711 1 8.87981 14.5602 1.5693 
712 1 7.07623 16.1655 1.78781 
406 1 -8.69453 18.1381 -1.69846 
409 1 -5.32157 18.0462 -1.73836 
410 1 -7.05507 19.9065 -1.92027 
414 1 -3.56579 19.7327 -1.69357 
428 1 -8.94374 21.6732 -1.89378 
431 1 -5.3364 21.6247 -1.782 
713 1 -8.88211 19.9129 -0.0663478 
714 1 -8.74515 18.1032 1.79273 
715 1 -7.03471 18.0124 -0.0640025 
716 1 -5.46229 20.0317 0.0971048 
717 1 -5.44051 18.1812 1.87218 
718 1 -7.19668 19.9269 1.77916 
719 1 -3.69352 18.0325 0.113157 
722 1 -3.58927 19.9188 1.79686 
736 1 -8.9727 21.6788 1.71032 
737 1 -7.19442 21.6335 -0.060795 
739 1 -5.42643 21.8281 1.88457 
741 1 -3.54579 21.7161 0.0762314 
413 1 -1.70528 18.0817 -1.77905 
417 1 1.7408 18.036 -1.68974 
418 1 0.0943235 19.9905 -1.86716 
435 1 -1.80378 21.6132 -1.72787 
439 1 1.83527 21.7054 -1.80646 
720 1 -1.71516 19.8365 0.000131729 
721 1 -1.86591 18.0907 1.82138 
723 1 0.00111952 18.0998 0.0780933 
724 1 1.87596 19.8153 0.0536938 
725 1 1.82835 17.9232 1.84152 
726 1 0.0561421 19.8216 1.78691 
743 1 -1.74004 21.6883 1.81035 
745 1 0.0306624 21.6476 0.0173605 
747 1 1.78065 21.6158 1.78483 
421 1 5.36386 18.202 -1.75932 
422 1 3.54534 19.9476 -1.92449 
425 1 8.99391 18.0873 -1.84282 
426 1 7.11787 19.93 -1.68334 
443 1 5.37655 21.7203 -1.83823 
447 1 8.85367 21.8173 -1.66516 
727 1 3.53719 17.9777 -0.00968375 
728 1 5.18572 19.8428 0.00363686 
729 1 5.26497 17.977 1.80898 
730 1 3.53947 19.8186 1.8562 
731 1 6.99764 18.0969 0.05205 
732 1 8.89003 19.8765 0.0280459 
733 1 8.92692 18.1315 1.61155 
734 1 7.10795 19.9869 1.68053 
749 1 3.55921 21.6899 0.0181447 
751 1 5.41848 21.629 1.82511 
753 1 7.108 21.7423 0.017763 
755 1 8.77677 21.8217 1.86309 
432 1 -7.06009 23.4156 -1.86029 
436 1 -3.68577 23.472 -1.82104 
450 1 -8.78065 25.2035 -1.92789 
453 1 -5.47373 25.2844 -1.78268 
454 1 -7.14356 27.0182 -1.82994 
458 1 -3.68892 27.0093 -1.8107 
735 1 -8.7841 23.4767 -0.16076 
738 1 -5.37526 23.4142 -0.0192893 
740 1 -7.20599 23.4213 1.75374 
744 1 -3.64142 23.5808 1.83646 
757 1 -8.96097 26.978 -0.171332 
758 1 -8.89673 25.2654 1.82193 
759 1 -7.14546 25.242 0.0410608 
760 1 -5.46094 26.9934 0.0822117 
761 1 -5.40336 25.274 1.85142 
762 1 -7.16987 27.0848 1.86276 
763 1 -3.59533 25.2576 -0.0150468 
766 1 -3.62585 27.086 1.87478 
440 1 0.116683 23.4281 -1.7994 
457 1 -1.80855 25.2377 -1.90563 
461 1 1.88565 25.2436 -1.70396 
462 1 -0.0804056 27.0464 -1.68457 
742 1 -1.81394 23.4964 -0.0409935 
746 1 1.76746 23.4365 0.0603203 
748 1 -0.0944061 23.4418 1.80435 
764 1 -1.89942 27.1391 0.0346044 
765 1 -1.8757 25.2957 1.93546 
767 1 -0.170556 25.2684 0.0040721 
768 1 1.73004 27.034 0.0350264 
769 1 1.62398 25.2172 1.72977 
770 1 -0.176085 27.0844 1.78621 
444 1 3.64791 23.475 -1.71433 
448 1 7.09594 23.5048 -1.68262 
465 1 5.32115 25.183 -1.75366 
466 1 3.62737 27.0451 -1.82838 
469 1 8.97035 25.2907 -1.78043 
470 1 7.02676 27.1008 -1.74507 
750 1 5.35483 23.4049 0.189077 
752 1 3.58101 23.3621 1.92676 
754 1 9.05188 23.5365 0.0782324 
756 1 7.16695 23.478 1.83047 
771 1 3.55871 25.2265 0.134227 
772 1 5.42442 26.9351 0.0270752 
773 1 5.43164 25.1923 1.8372 
774 1 3.58748 26.9966 1.8217 
775 1 7.13339 25.1924 -0.0671578 
776 1 8.78589 26.9479 -0.0095613 
777 1 8.8105 25.2767 1.7865 
778 1 7.09193 27.0006 1.80268 
472 1 -8.81382 28.9602 -1.80291 
475 1 -5.41512 28.8415 -1.75648 
476 1 -7.12624 30.6354 -1.86494 
480 1 -3.51466 30.6768 -1.77538 
494 1 -8.78387 32.4985 -1.53866 
497 1 -5.40677 32.4268 -1.88625 
779 1 -8.81935 30.6073 0.0629876 
780 1 -8.90602 28.8956 1.7599 
781 1 -7.19678 28.7863 0.0224464 
782 1 -5.24459 30.6605 -0.0359952 
783 1 -5.33217 28.9037 1.74521 
784 1 -6.95412 30.7252 1.75893 
785 1 -3.60847 28.7929 -0.016759 
788 1 -3.44858 30.5842 1.75676 
802 1 -8.79967 32.4332 1.78084 
803 1 -7.06219 32.3813 -0.00590064 
805 1 -5.2926 32.4621 1.8007 
807 1 -3.5043 32.4297 -0.021189 
479 1 -1.8185 28.8364 -1.80414 
483 1 1.83416 28.7869 -1.82823 
484 1 -0.0366229 30.6163 -1.74599 
501 1 -1.677 32.5216 -1.83677 
505 1 1.79753 32.4419 -1.81688 
786 1 -1.75775 30.6124 0.0284205 
787 1 -1.81185 28.8223 1.9724 
789 1 0.0326465 28.9024 0.0621555 
790 1 1.83675 30.6086 -0.170138 
791 1 1.82937 28.9041 1.73707 
792 1 -0.0489866 30.7105 1.79378 
809 1 -1.81056 32.4894 1.80274 
811 1 -0.0611395 32.546 -0.0419705 
813 1 1.73222 32.427 1.6948 
487 1 5.35343 28.7922 -2.0223 
488 1 3.62988 30.6378 -1.86402 
491 1 8.94176 28.807 -1.6851 
492 1 7.08559 30.7122 -1.78762 
509 1 5.37758 32.4486 -1.88703 
513 1 8.95701 32.4996 -1.86928 
793 1 3.70681 28.6863 -0.0206259 
794 1 5.26878 30.5354 -0.0878801 
795 1 5.50536 28.8253 1.74311 
796 1 3.57203 30.5611 1.75854 
797 1 7.18086 28.9123 -0.0419841 
798 1 8.89692 30.7682 -0.0720901 
799 1 8.79997 28.7282 1.76439 
800 1 7.1387 30.7447 1.72498 
815 1 3.50469 32.4296 -0.0530938 
817 1 5.21363 32.4152 1.73204 
819 1 7.00811 32.4167 0.00911415 
821 1 8.88767 32.5813 1.8492 
498 1 -7.08169 34.2581 -1.72076 
502 1 -3.6312 34.2597 -1.72562 
516 1 -8.87322 36.022 -1.78546 
519 1 -5.34538 36.098 -1.80904 
520 1 -7.1616 37.8841 -1.79959 
524 1 -3.64932 37.9647 -1.86478 
801 1 -8.93615 34.3963 0.215532 
804 1 -5.24064 34.3412 0.00376288 
806 1 -6.96598 34.1409 1.76552 
810 1 -3.68565 34.3508 1.80939 
823 1 -8.8595 37.8483 -0.0395159 
824 1 -8.74846 36.0838 1.86876 
825 1 -7.03496 36.0094 0.0349802 
826 1 -5.3714 37.8603 -0.0343521 
827 1 -5.3633 36.2063 1.86803 
828 1 -7.10452 37.936 1.70979 
829 1 -3.42798 36.2872 0.011801 
832 1 -3.6143 37.982 1.81749 
506 1 0.0279625 34.416 -1.78554 
523 1 -1.77232 36.1045 -1.83521 
527 1 1.80173 36.1126 -1.83645 
528 1 0.0225507 37.9652 -1.94166 
808 1 -1.89559 34.3027 0.0233705 
812 1 1.78863 34.2333 -0.121623 
814 1 -0.00631649 34.2699 1.64771 
830 1 -1.68693 37.9482 -0.0324642 
831 1 -1.63261 36.1051 1.78309 
833 1 0.0245114 36.214 -0.0997888 
834 1 1.76849 37.9397 -0.0241117 
835 1 1.59025 36.1168 1.71027 
836 1 0.000368212 37.9962 1.81619 
510 1 3.60599 34.2662 -1.82867 
514 1 7.07678 34.2212 -1.88773 
531 1 5.3135 35.9395 -1.86799 
532 1 3.50491 37.8479 -1.76707 
535 1 8.82871 36.1168 -1.74072 
536 1 7.0175 37.842 -1.80685 
816 1 5.3349 34.1544 0.0597096 
818 1 3.42044 34.3138 1.82715 
820 1 8.76168 34.0819 -0.109181 
822 1 7.14482 34.3084 1.75722 
837 1 3.52401 36.0122 0.0592559 
838 1 5.21869 37.8486 -0.121252 
839 1 5.32826 36.0485 1.74234 
840 1 3.52176 37.8539 1.78464 
841 1 7.01537 36.0405 -0.0396647 
842 1 8.89914 37.7637 -0.0398396 
843 1 8.93506 35.9647 1.69668 
844 1 7.14626 37.8767 1.70645 
538 1 -8.94606 39.6396 -1.86442 
541 1 -5.36854 39.6891 -1.99321 
542 1 -7.07861 41.4081 -1.76788 
546 1 -3.47436 41.4845 -1.77297 
560 1 -8.91316 43.3144 -1.72531 
563 1 -5.44693 43.2681 -1.78756 
845 1 -8.75703 41.5259 -0.0434867 
846 1 -8.9005 39.6077 1.71242 
847 1 -7.08193 39.6469 -0.0774946 
848 1 -5.22491 41.3771 -0.0761208 
849 1 -5.3808 39.7764 1.8268 
850 1 -7.13831 41.4477 1.80454 
851 1 -3.56357 39.6069 0.00505274 
854 1 -3.44484 41.409 1.84894 
868 1 -8.88731 43.2608 1.89501 
869 1 -7.06136 43.2795 0.0758749 
871 1 -5.32296 43.1519 1.89268 
873 1 -3.65502 43.2125 0.0228388 
545 1 -1.81302 39.6268 -1.85825 
549 1 1.77699 39.7086 -1.81826 
550 1 -0.0202257 41.444 -1.83524 
567 1 -1.78963 43.2316 -1.81524 
571 1 1.76558 43.2242 -1.78435 
852 1 -1.75372 41.4817 0.0717976 
853 1 -1.74796 39.653 1.81759 
855 1 -0.0718485 39.7913 -0.125022 
856 1 1.75537 41.5313 0.104436 
857 1 1.73992 39.7286 1.73378 
858 1 -0.00646659 41.4569 1.93189 
875 1 -1.80826 43.285 1.70112 
877 1 0.0354705 43.1977 -0.0545261 
879 1 1.78527 43.3059 1.93694 
553 1 5.33142 39.6698 -1.86732 
554 1 3.58559 41.5007 -1.76144 
557 1 8.78239 39.6278 -1.8248 
558 1 7.02933 41.4503 -1.8439 
575 1 5.3147 43.2787 -1.78864 
579 1 8.75518 43.2253 -1.68648 
859 1 3.50402 39.7617 0.00967706 
860 1 5.22549 41.4885 0.0873894 
861 1 5.34719 39.5718 1.68408 
862 1 3.5975 41.5055 1.94383 
863 1 7.05469 39.6607 -0.125318 
864 1 8.97167 41.4001 -0.0458546 
865 1 8.85785 39.6361 1.6133 
866 1 7.10922 41.4733 1.73769 
881 1 3.48331 43.3567 0.052713 
883 1 5.33107 43.2983 1.80985 
885 1 6.96974 43.1881 -0.00759862 
887 1 8.79472 43.3634 1.76294 
564 1 -7.10473 45.0659 -1.83937 
568 1 -3.63953 44.9216 -1.86923 
582 1 -8.90559 46.9188 -1.61813 
585 1 -5.31612 46.7672 -1.82535 
586 1 -7.13661 48.5136 -1.84842 
590 1 -3.6452 48.5651 -1.73501 
867 1 -8.83138 45.08 0.0515917 
870 1 -5.35841 45.0216 0.0215506 
872 1 -7.13796 45.0484 1.83842 
876 1 -3.64357 45.0159 1.7931 
889 1 -9.02165 48.6217 0.209146 
890 1 -8.93387 46.8487 1.7879 
891 1 -7.04378 46.8112 -0.035055 
892 1 -5.38535 48.5789 -0.00278286 
893 1 -5.41975 46.7655 1.92042 
894 1 -7.13525 48.4801 1.84049 
895 1 -3.61122 46.7802 0.00457318 
898 1 -3.68501 48.4576 1.78802 
572 1 -0.0177283 45.0975 -1.73899 
589 1 -1.89334 46.813 -1.73609 
593 1 1.79495 46.7164 -1.74934 
594 1 -0.0330217 48.5112 -1.80786 
874 1 -1.86086 44.973 -0.160018 
878 1 1.78015 45.0492 0.0954906 
880 1 -0.0605848 44.8923 1.67341 
896 1 -1.79935 48.5002 0.0332794 
897 1 -1.9253 46.6167 1.87186 
899 1 -0.0352441 46.6938 0.166592 
900 1 1.83824 48.3809 0.142516 
901 1 1.84961 46.7354 1.94771 
902 1 -0.0468964 48.5103 1.77944 
576 1 3.5416 44.9922 -1.7949 
580 1 7.0906 45.1029 -1.83453 