ITEM: TIMESTEP
200
ITEM: NUMBER OF ATOMS
361
ITEM: BOX BOUNDS pp pp pp
-10 10
0 50
-10 10
ITEM: ATOMS id type x y z 
66 1 -1.8738 16.3203 -3.41705 
68 1 1.74727 16.341 -3.49836 
15 1 -3.58735 19.822 -5.54991 
21 1 -5.48585 21.4938 -5.48948 
23 1 -3.58626 21.6045 -7.16627 
71 1 -5.41143 19.7901 -3.69398 
74 1 -3.55535 18.084 -3.74238 
89 1 -7.11556 21.66 -3.69927 
93 1 -3.47948 21.5777 -3.5455 
1 1 -1.69898 21.7954 -8.7726 
3 1 1.60523 21.5765 -8.75305 
13 1 -1.65601 19.6413 -7.28202 
14 1 -1.42403 17.9839 -5.43617 
16 1 1.60275 19.7567 -7.18116 
17 1 1.58591 18.1106 -5.34728 
18 1 0.0170731 19.9627 -5.25917 
25 1 -1.85833 21.6027 -5.29877 
27 1 -0.00646166 21.7242 -6.95873 
29 1 1.7918 21.6733 -5.34059 
75 1 -1.86308 19.7375 -3.58059 
78 1 0.0562394 18.0856 -3.53856 
79 1 1.87325 19.8673 -3.54357 
97 1 0.0109571 21.6748 -3.55218 
19 1 3.65263 19.8588 -5.36149 
31 1 3.54173 21.6556 -7.15328 
33 1 5.5215 21.6521 -5.44984 
82 1 3.51049 18.0674 -3.61987 
83 1 5.31385 19.7773 -3.48005 
101 1 3.54164 21.6165 -3.59652 
105 1 7.18245 21.6235 -3.68325 
2 1 -3.57763 23.4365 -8.78923 
7 1 -3.62345 26.9444 -8.94762 
20 1 -5.40125 23.5212 -7.19309 
22 1 -7.1624 23.4941 -5.64171 
26 1 -3.64053 23.2285 -5.40091 
36 1 -5.50182 27.0716 -7.19802 
37 1 -5.35004 25.2262 -5.47117 
38 1 -7.25778 27.0016 -5.37088 
39 1 -3.65647 25.3497 -7.11216 
42 1 -3.65573 27.1531 -5.45807 
87 1 -8.75922 23.5245 -3.69393 
90 1 -5.22055 23.2549 -3.68584 
109 1 -8.83186 26.7197 -3.65859 
111 1 -6.9679 25.1389 -3.65569 
112 1 -5.37792 27.0667 -3.64093 
115 1 -3.54328 25.2355 -3.68026 
4 1 0.0625995 23.5398 -8.81792 
6 1 -1.79038 25.2056 -8.81312 
8 1 1.77183 25.3306 -8.73103 
9 1 -0.0363493 26.8921 -8.75983 
24 1 -1.7687 23.4938 -6.93386 
28 1 1.77846 23.4367 -6.98549 
30 1 0.0146548 23.3628 -5.20627 
40 1 -1.69782 27.0389 -6.96297 
41 1 -1.91351 25.2676 -5.35361 
43 1 -0.0388257 25.1564 -6.97642 
44 1 1.84743 27.0818 -6.97669 
45 1 1.8763 25.2711 -5.30012 
46 1 -0.0245351 27.036 -5.33129 
94 1 -1.90019 23.3935 -3.54669 
98 1 1.82166 23.3879 -3.53593 
116 1 -1.75472 27.2167 -3.54121 
119 1 -0.120419 25.2945 -3.54685 
120 1 1.87058 27.1635 -3.61421 
5 1 3.31664 23.4942 -8.9054 
10 1 3.82191 26.6281 -8.79042 
32 1 5.28398 23.437 -7.16426 
34 1 3.63495 23.4259 -5.25274 
35 1 7.07616 23.4721 -5.37189 
47 1 3.63034 25.2298 -6.9232 
48 1 5.39556 26.9837 -7.11599 
49 1 5.42275 25.3259 -5.26048 
50 1 3.64505 27.1666 -5.29403 
51 1 7.11895 27.0718 -5.46995 
102 1 5.37312 23.5008 -3.55489 
106 1 8.95837 23.592 -3.60476 
123 1 3.517 25.2975 -3.55557 
124 1 5.41271 27.3263 -3.62912 
127 1 7.24463 25.3686 -3.64309 
128 1 8.86066 27.2934 -3.53311 
52 1 -5.34584 28.923 -5.43835 
53 1 -3.51188 28.8035 -7.27723 
56 1 -3.6439 30.716 -5.55681 
132 1 -7.2489 28.8344 -3.52562 
133 1 -5.43957 30.7355 -3.5917 
136 1 -3.75083 28.8797 -3.56314 
152 1 -3.58057 32.5266 -3.54101 
11 1 -1.69013 28.5641 -8.92017 
12 1 1.75263 28.4409 -8.95345 
54 1 -1.80399 30.7805 -7.24618 
55 1 -1.87794 28.9905 -5.33279 
57 1 -0.132395 28.8066 -7.08014 
58 1 1.75676 30.5288 -7.26541 
59 1 1.82352 28.8547 -5.39321 
60 1 -0.0363114 30.6704 -5.38893 
64 1 -1.77601 32.5552 -5.40182 
65 1 1.69297 32.4248 -5.42095 
137 1 -1.85047 30.6625 -3.66384 
140 1 0.0776741 28.952 -3.51949 
141 1 1.92669 30.7209 -3.55336 
154 1 0.0757802 32.4015 -3.67919 
61 1 3.68864 28.8444 -7.23863 
62 1 5.41073 29.0903 -5.40256 
63 1 3.60261 30.9565 -5.55009 
144 1 3.70783 29.2041 -3.66503 
145 1 5.56719 30.9405 -3.56313 
148 1 7.24244 29.1175 -3.50331 
157 1 3.61154 32.5979 -3.56942 
67 1 -3.55772 16.3037 -1.62071 
160 1 -3.66621 16.4198 1.50314 
69 1 -0.0427302 16.2737 -1.78033 
159 1 -1.7379 16.2177 0.0172701 
161 1 1.67679 16.1781 0.0327781 
162 1 -0.0583858 16.1863 1.75451 
70 1 3.45973 16.2837 -1.68092 
163 1 3.49559 16.2988 1.76367 
72 1 -5.41088 18.0038 -1.70018 
73 1 -7.28679 19.8249 -1.86611 
77 1 -3.75092 19.8402 -1.8162 
88 1 -8.9127 21.7778 -1.92823 
91 1 -5.40723 21.6181 -1.79378 
164 1 -5.45163 20.0053 0.118597 
165 1 -5.4568 18.0665 1.53929 
166 1 -7.37008 19.9787 1.49517 
167 1 -3.63102 18.1714 -0.0534323 
170 1 -3.66435 19.8151 1.81714 
181 1 -9.13004 21.911 1.86374 
182 1 -7.30614 21.819 -0.0630352 
184 1 -5.31111 21.6507 1.96241 
186 1 -3.56349 21.695 -0.0478226 
76 1 -1.76691 18.0881 -1.72262 
80 1 1.7065 18.0904 -1.7792 
81 1 -0.0588901 19.9085 -1.74483 
95 1 -1.80152 21.6476 -1.79526 
99 1 1.70831 21.6943 -1.75824 
168 1 -1.89182 19.8679 -0.0685446 
169 1 -1.91999 18.1325 1.71111 
171 1 -0.0400459 18.1817 0.046274 
172 1 1.77225 19.805 -0.0195378 
173 1 1.75086 18.056 1.67025 
174 1 0.000379044 19.7145 1.78619 
188 1 -1.79802 21.5773 1.77706 
190 1 -0.0196562 21.5776 0.0842289 
192 1 1.86395 21.5823 1.91691 
84 1 5.35208 18.0434 -1.56836 
85 1 3.55498 19.9008 -1.8444 
86 1 7.12343 19.8065 -1.70215 
103 1 5.4052 21.6007 -1.88718 
107 1 8.76602 21.7086 -1.72036 
175 1 3.47445 18.0177 -0.0907871 
176 1 5.27614 19.9515 -0.0402686 
177 1 5.186 18.0273 1.57323 
178 1 3.52611 19.8889 1.88355 
179 1 6.96505 19.6897 1.69775 
194 1 3.50663 21.5997 -0.0481862 
196 1 5.17563 21.6252 1.82438 
198 1 6.95043 21.7603 -0.0920184 
200 1 8.6774 21.4314 1.4847 
92 1 -6.97319 23.5465 -1.83027 
96 1 -3.61513 23.4854 -1.82346 
110 1 -8.77518 25.2293 -1.82815 
113 1 -5.19108 25.2323 -1.74107 
114 1 -6.99135 26.9767 -1.85994 
118 1 -3.60616 27.1007 -1.84914 
180 1 -8.90141 23.5841 -0.0143282 
183 1 -5.33141 23.3742 0.0926544 
185 1 -6.9834 23.4633 1.94549 
189 1 -3.60629 23.339 1.83761 
202 1 -8.83017 26.8392 -0.096306 
203 1 -8.79741 25.2477 1.72377 
204 1 -7.01868 25.266 -0.0285451 
205 1 -5.33073 27.0235 -0.000487036 
206 1 -5.34472 25.1737 1.84889 
207 1 -6.94498 27.025 1.71054 
208 1 -3.48239 25.2508 0.083089 
211 1 -3.40137 27.0935 1.94122 
100 1 -0.0563462 23.4407 -1.73483 
117 1 -1.77804 25.3367 -1.75721 
121 1 1.74143 25.2617 -1.80782 
122 1 0.0599789 27.2527 -1.73585 
187 1 -1.72063 23.4981 -0.108692 
191 1 1.81215 23.4985 -0.0243829 
193 1 -0.0893437 23.4381 1.83061 
209 1 -1.67621 27.0366 -0.0512803 
210 1 -1.81947 25.2495 1.86326 
212 1 0.140399 25.2887 0.0998569 
213 1 1.73677 27.1309 -0.10917 
214 1 1.79328 25.2749 1.85778 
215 1 -0.0447449 27.0795 1.88747 
104 1 3.57586 23.3843 -1.8162 
108 1 7.10488 23.5568 -1.84913 
125 1 5.31722 25.3523 -1.91812 
126 1 3.5685 27.2374 -1.89682 
129 1 8.89761 25.2396 -1.75418 
130 1 7.17707 27.1594 -1.75777 
195 1 5.23728 23.5664 -0.0198325 
197 1 3.61157 23.453 1.83644 
199 1 8.80603 23.5296 0.00322456 
201 1 7.00323 23.3617 1.66442 
216 1 3.46114 25.3462 -0.0167002 
217 1 5.33298 27.1515 -0.0327882 
218 1 5.35785 25.3224 1.71394 
219 1 3.63959 27.1896 1.798 
220 1 6.88895 25.3497 -0.110542 
221 1 8.88762 26.9394 -0.015077 
222 1 8.91083 25.251 1.68783 
223 1 7.09444 26.9971 1.70603 
131 1 -8.88783 28.7484 -1.75296 
134 1 -5.35375 28.8854 -1.77176 
135 1 -7.21947 30.6408 -1.78171 
139 1 -3.62534 30.6692 -1.86251 
151 1 -5.43745 32.3548 -1.59851 
224 1 -8.82328 28.6752 1.68897 
225 1 -7.01755 28.7814 -0.0503868 
226 1 -5.28759 30.5906 0.013827 
227 1 -5.29177 28.9278 1.84669 
228 1 -7.2966 30.5785 1.56204 
229 1 -3.65045 28.8371 -0.0196928 
232 1 -3.64316 30.6789 1.88539 
244 1 -5.38368 32.4284 1.69633 
245 1 -3.52329 32.4801 -0.177274 
138 1 -1.89414 29.0231 -1.85286 
142 1 1.99121 28.9086 -1.78542 
143 1 0.116524 30.7012 -1.82279 
153 1 -1.73888 32.4378 -1.9791 
155 1 1.86421 32.7099 -1.94786 
230 1 -1.89039 30.7979 0.0324995 
231 1 -1.77675 28.8943 1.81941 
233 1 0.0694303 29.0256 -0.057763 
234 1 1.92747 30.6981 -0.0569553 
235 1 1.70322 28.9386 1.77873 
236 1 -0.0575885 30.7167 1.80004 
247 1 -1.82272 32.5671 1.76497 
248 1 -0.00262985 32.3304 0.0591824 
250 1 1.82115 32.564 1.91059 
146 1 5.38754 29.0297 -1.79319 
147 1 3.67674 30.6646 -1.7758 
149 1 8.83169 29.0685 -1.60827 
150 1 7.1323 30.8812 -1.47233 
158 1 5.17966 32.5587 -1.72663 
237 1 3.62947 28.7742 0.114895 
238 1 5.27523 30.7274 0.0476434 
239 1 5.42065 29.0077 1.77801 
240 1 3.56663 30.7746 1.90382 
241 1 7.10152 28.8417 -0.107116 
242 1 8.96096 28.9627 1.59109 
243 1 7.2017 30.7783 1.56904 
252 1 3.56949 32.5571 0.116301 
253 1 5.39086 32.5014 1.77187 
156 1 -0.0730188 34.2107 -1.79868 
246 1 -1.72496 34.3096 -0.113563 
249 1 1.64492 34.1736 -0.0436206 
251 1 -0.0649563 34.2228 1.67015 
254 1 -1.84305 16.3625 3.52586 
255 1 1.77359 16.3659 3.48998 
256 1 -5.54582 19.7217 3.5586 
257 1 -3.76275 17.9947 3.52238 
260 1 -3.66535 19.677 5.4453 
269 1 -7.28666 21.6586 3.54141 
271 1 -5.4082 21.5687 5.47485 
273 1 -3.47739 21.4476 3.54565 
332 1 -3.49944 21.5738 7.29668 
258 1 -1.8128 19.683 3.54175 
259 1 -1.88017 18.0687 5.39627 
261 1 0.0222514 17.9651 3.59864 
262 1 1.77743 19.7695 3.57934 
263 1 1.68252 17.9537 5.43418 
264 1 0.00357055 19.7959 5.34295 
275 1 -1.90747 21.4867 5.46114 
277 1 0.0835618 21.5783 3.75091 
279 1 1.9482 21.5827 5.41017 
329 1 -1.77291 19.6749 7.27361 
330 1 1.75072 19.8594 7.23846 
334 1 -1.55334 21.5681 8.83672 
336 1 0.0647173 21.6205 7.08184 
338 1 1.92478 21.9856 8.90056 
265 1 3.65571 17.9909 3.60801 
266 1 5.53714 19.589 3.68391 
267 1 3.66665 19.684 5.57764 
281 1 3.70171 21.4967 3.74006 
283 1 5.30451 21.6985 5.5409 
285 1 7.13181 21.4857 3.57122 
340 1 3.70029 21.7171 7.3312 
268 1 -8.8967 23.8292 3.68357 
270 1 -5.30617 23.3382 3.71599 
272 1 -7.18196 23.4339 5.49594 
276 1 -3.61717 23.248 5.47724 
288 1 -8.742 27.1116 3.63208 
289 1 -7.02209 25.2987 3.66922 
290 1 -5.26243 27.0943 3.50062 
291 1 -5.33678 25.2041 5.45058 
292 1 -7.11084 26.9776 5.43349 
293 1 -3.62866 25.2432 3.59694 
296 1 -3.6043 27.2044 5.38412 
331 1 -5.38212 23.4386 7.2413 
335 1 -3.26337 23.4105 8.90804 
343 1 -5.29318 26.9566 7.25063 
344 1 -3.58215 25.153 7.10898 
347 1 -3.49041 26.9785 8.8106 
274 1 -1.87442 23.3877 3.66912 
278 1 1.86135 23.471 3.56827 
280 1 0.0187636 23.3913 5.38315 
294 1 -1.77856 27.044 3.6933 
295 1 -1.86889 25.2878 5.32369 
297 1 -0.0892437 25.2857 3.68259 
298 1 1.7342 27.119 3.55371 
299 1 1.80344 25.3264 5.2601 
300 1 0.01896 27.2311 5.31501 
333 1 -1.71051 23.5127 7.07645 
337 1 1.79274 23.5901 7.09955 
339 1 -0.0218551 23.5228 8.92446 
345 1 -1.85636 27.0808 7.12692 
346 1 -1.69421 25.2709 8.92201 
348 1 0.000441187 25.3956 7.08457 
349 1 1.81744 27.1862 7.09959 
350 1 1.69446 25.2962 8.87172 
351 1 0.0718262 27.1998 8.96577 
282 1 5.40568 23.3895 3.53355 
284 1 3.5044 23.5704 5.37166 
286 1 8.80549 23.1413 3.33693 
287 1 7.21957 23.5271 5.39481 
301 1 3.7005 25.3362 3.49588 
302 1 5.42766 27.2023 3.53546 
303 1 5.32693 25.3183 5.26035 
304 1 3.63449 27.188 5.26804 
305 1 7.3904 25.211 3.52029 
306 1 8.91345 26.9748 3.29507 
307 1 7.26726 26.9116 5.28724 
341 1 5.46807 23.6807 7.101 
342 1 3.76738 23.8228 8.87687 
352 1 3.54092 25.3458 7.09621 
353 1 5.37677 26.9323 7.15673 
354 1 3.36734 27.1387 9.00296 
308 1 -7.01835 28.8972 3.5059 
309 1 -5.45541 30.7022 3.63265 
310 1 -5.31691 28.9438 5.45583 
311 1 -3.57325 28.9003 3.5768 
314 1 -3.67912 30.8466 5.47477 
324 1 -3.6378 32.4997 3.53372 
355 1 -3.52217 28.9369 7.16006 
312 1 -1.78069 30.7985 3.5296 
313 1 -1.80113 28.9648 5.43109 
315 1 -0.10306 28.9036 3.57776 
316 1 1.79219 30.6334 3.71553 
317 1 1.7612 29.0032 5.34405 
318 1 0.0136244 30.7516 5.36116 
325 1 -1.80574 32.5143 5.40334 
326 1 -0.0965199 32.5603 3.66357 
327 1 1.86303 32.3973 5.3762 
356 1 -1.73767 30.8565 7.15925 
357 1 -1.76384 29.0537 8.82597 
358 1 -0.034428 28.9461 7.17271 
359 1 1.73693 30.6958 7.08278 
360 1 1.72335 29.0306 8.77645 
319 1 3.68104 28.9002 3.65106 
320 1 5.62522 30.6237 3.69651 
321 1 5.64333 28.8114 5.48031 
322 1 3.63037 30.5413 5.43567 
323 1 7.2705 28.7858 3.4926 
328 1 3.68513 32.4721 3.74433 
361 1 3.7036 28.8803 7.22469 
