ITEM: TIMESTEP
100
ITEM: NUMBER OF ATOMS
361
ITEM: BOX BOUNDS pp pp pp
-10 10
0 50
-10 10
ITEM: ATOMS id type x y z 
66 1 -1.76913 16.5324 -3.61823 
68 1 1.73902 16.2756 -3.68542 
15 1 -3.49719 19.5889 -5.3783 
21 1 -5.31544 21.6552 -5.60638 
23 1 -3.61293 21.5468 -7.25437 
71 1 -5.43371 19.8313 -3.66325 
74 1 -3.80883 17.9586 -3.46385 
89 1 -7.19748 21.5579 -3.82532 
93 1 -3.69232 21.5415 -3.73273 
1 1 -1.75289 21.7131 -8.80957 
3 1 1.69304 21.5632 -8.91613 
13 1 -1.61746 19.9093 -7.09932 
14 1 -1.54019 17.9984 -5.44457 
16 1 1.69326 19.746 -7.05927 
17 1 1.76021 18.0233 -5.29207 
18 1 -0.0106997 19.8878 -5.29901 
25 1 -1.8218 21.617 -5.47237 
27 1 -0.032125 21.6239 -7.10078 
29 1 1.88018 21.5704 -5.35271 
75 1 -1.80571 19.8108 -3.57851 
78 1 -0.0235681 18.1282 -3.4511 
79 1 1.75639 19.9148 -3.57731 
97 1 -0.0502198 21.6542 -3.57098 
19 1 3.60541 19.7347 -5.41748 
31 1 3.596 21.549 -7.27836 
33 1 5.24037 21.5789 -5.42691 
82 1 3.6868 18.0751 -3.53049 
83 1 5.55526 19.8696 -3.58656 
101 1 3.61439 21.6519 -3.61074 
105 1 7.30914 21.6084 -3.58417 
2 1 -3.57876 23.5811 -8.92273 
7 1 -3.61431 26.9637 -8.79609 
20 1 -5.4587 23.5631 -7.3146 
22 1 -7.12808 23.5014 -5.41671 
26 1 -3.64001 23.5531 -5.42701 
36 1 -5.34982 27.0463 -7.17936 
37 1 -5.43591 25.227 -5.36804 
38 1 -7.01824 27.0426 -5.42715 
39 1 -3.60267 25.1854 -7.09648 
42 1 -3.73313 27.0935 -5.33296 
87 1 -8.80962 23.568 -3.66874 
90 1 -5.47473 23.4256 -3.61401 
109 1 -8.77583 26.9468 -3.50482 
111 1 -7.04002 25.2409 -3.58108 
112 1 -5.3817 27.1132 -3.60301 
115 1 -3.76087 25.2449 -3.51393 
4 1 0.0407118 23.5016 -8.84846 
6 1 -1.80076 25.2237 -8.88093 
8 1 1.77639 25.287 -8.77342 
9 1 -0.0237586 26.8742 -8.7977 
24 1 -1.84665 23.4626 -7.11327 
28 1 1.85023 23.5027 -7.09411 
30 1 -0.0127886 23.5244 -5.36408 
40 1 -1.98771 26.9967 -7.03274 
41 1 -1.83759 25.2557 -5.25486 
43 1 -0.00628673 25.2927 -6.93641 
44 1 1.80028 26.9843 -6.91441 
45 1 1.7285 25.301 -5.18359 
46 1 -0.02201 27.1407 -5.18525 
94 1 -1.78104 23.501 -3.61181 
98 1 1.74441 23.4919 -3.54158 
116 1 -1.93679 27.0505 -3.61078 
119 1 0.0249326 25.3006 -3.53026 
120 1 1.84527 27.2452 -3.55444 
5 1 3.55573 23.6018 -8.8718 
10 1 3.67777 26.8812 -8.80672 
32 1 5.26534 23.5881 -7.10462 
34 1 3.50553 23.3866 -5.34145 
35 1 7.21811 23.5266 -5.50434 
47 1 3.48822 25.2835 -6.97271 
48 1 5.52039 26.9378 -7.04505 
49 1 5.38635 25.2428 -5.3316 
50 1 3.68444 27.2034 -5.34847 
51 1 7.1761 27.2308 -5.22784 
102 1 5.39318 23.3554 -3.6888 
106 1 8.83897 23.6113 -3.58594 
123 1 3.67577 25.2877 -3.52325 
124 1 5.36628 27.1045 -3.59206 
127 1 7.06674 25.2985 -3.68321 
128 1 8.95484 27.1336 -3.66997 
52 1 -5.5097 29.0509 -5.4859 
53 1 -3.71467 29.043 -7.19202 
56 1 -3.58998 30.8222 -5.31945 
132 1 -7.14172 28.9322 -3.7581 
133 1 -5.36929 30.7708 -3.6043 
136 1 -3.59276 28.9347 -3.67716 
152 1 -3.65774 32.6173 -3.51477 
11 1 -1.73818 28.6352 -8.79276 
12 1 1.8133 28.5851 -8.8068 
54 1 -1.63689 30.5405 -7.11493 
55 1 -1.88475 28.8441 -5.41174 
57 1 0.101169 28.8221 -7.05429 
58 1 1.60436 30.7855 -7.10781 
59 1 1.86248 29.0298 -5.3622 
60 1 -0.0332333 30.7163 -5.42843 
64 1 -1.85737 32.4463 -5.19227 
65 1 1.75857 32.5981 -5.29407 
137 1 -1.90569 30.6659 -3.53384 
140 1 -0.0403076 28.9878 -3.69672 
141 1 1.86027 30.729 -3.72812 
154 1 -0.0669701 32.3948 -3.52439 
61 1 3.61196 28.845 -7.18798 
62 1 5.55305 29.0418 -5.542 
63 1 3.69805 30.6826 -5.56825 
144 1 3.71192 28.9984 -3.66433 
145 1 5.51507 30.8625 -3.57213 
148 1 7.14551 29.0915 -3.6056 
157 1 3.73058 32.422 -3.81376 
67 1 -3.66164 16.3154 -1.78247 
160 1 -3.55802 16.3072 1.71722 
69 1 0.084651 16.154 -1.87144 
159 1 -1.73052 16.1779 -0.094461 
161 1 1.72126 16.2305 0.0188085 
162 1 0.0298068 16.3695 1.86013 
70 1 3.41892 16.3447 -1.79551 
163 1 3.62278 16.3965 1.55818 
72 1 -5.58615 18.074 -1.74295 
73 1 -7.08709 20.0011 -1.73213 
77 1 -3.54656 19.8506 -1.83295 
88 1 -8.6717 21.7967 -1.82216 
91 1 -5.29131 21.6586 -1.89618 
164 1 -5.36764 19.8191 -0.0987272 
165 1 -5.49348 18.1479 1.75013 
166 1 -7.36511 19.9192 1.65545 
167 1 -3.6775 17.9844 -0.0367688 
170 1 -3.58785 19.875 1.697 
181 1 -8.98732 21.9433 1.79929 
182 1 -7.06076 21.7237 0.0634471 
184 1 -5.43852 21.574 1.70976 
186 1 -3.57397 21.6061 0.0135765 
76 1 -1.82774 18.0663 -1.71985 
80 1 1.79478 18.137 -1.81547 
81 1 0.0272416 19.9306 -1.79416 
95 1 -1.80198 21.6514 -1.8472 
99 1 1.77072 21.6967 -1.74639 
168 1 -1.75452 19.9266 0.0173533 
169 1 -1.75676 18.0786 1.67407 
171 1 0.101994 17.9908 -0.0535518 
172 1 1.76192 19.964 0.109528 
173 1 1.79259 18.1022 1.96487 
174 1 -0.0568627 19.9284 1.92199 
188 1 -1.87577 21.6753 1.88617 
190 1 -0.00399173 21.7697 0.0346668 
192 1 1.76635 21.6579 1.89207 
84 1 5.32371 18.078 -1.73 
85 1 3.52352 19.8752 -1.76783 
86 1 7.25602 19.8666 -1.62643 
103 1 5.31698 21.6852 -1.80253 
107 1 9.01719 21.7819 -1.76338 
175 1 3.43828 18.1817 -0.0323594 
176 1 5.20368 19.8136 -0.0333698 
177 1 5.52539 17.9448 1.6681 
178 1 3.64014 19.6211 1.87116 
179 1 7.01252 19.7996 1.62991 
194 1 3.50697 21.7064 0.0796839 
196 1 5.27092 21.5786 1.78712 
198 1 7.02129 21.6034 -0.059114 
200 1 8.65476 21.5228 1.67587 
92 1 -7.02969 23.4029 -1.7575 
96 1 -3.52402 23.374 -1.84713 
110 1 -8.92513 25.0856 -1.73068 
113 1 -5.35478 25.2185 -1.78032 
114 1 -7.06878 27.0205 -1.80616 
118 1 -3.548 27.0748 -1.7576 
180 1 -8.95508 23.4818 0.0216513 
183 1 -5.26187 23.4655 0.00388283 
185 1 -7.21899 23.4904 1.73939 
189 1 -3.52031 23.487 1.86197 
202 1 -8.73275 27.0415 -0.0386723 
203 1 -8.87074 25.3522 1.79069 
204 1 -7.04997 25.1348 0.0887406 
205 1 -5.24066 27.0543 0.0179396 
206 1 -5.22876 25.2757 1.83051 
207 1 -7.01664 27.0293 1.88745 
208 1 -3.50892 25.2778 -0.0167349 
211 1 -3.57066 27.0586 1.76278 
100 1 -0.00341888 23.5423 -1.81461 
117 1 -1.82903 25.2591 -1.85923 
121 1 1.85476 25.4026 -1.78184 
122 1 0.0247884 27.124 -1.90112 
187 1 -1.84558 23.4563 0.100503 
191 1 1.74565 23.5227 0.0479604 
193 1 0.0417933 23.4487 1.85646 
209 1 -1.78838 27.172 0.0900454 
210 1 -1.73577 25.2774 1.84271 
212 1 -0.0784292 25.3523 -0.0569734 
213 1 1.86259 27.1371 0.0397197 
214 1 1.80255 25.3189 1.75644 
215 1 0.0349977 27.1271 1.82241 
104 1 3.5681 23.5345 -1.82332 
108 1 7.1123 23.3982 -1.85945 
125 1 5.40287 25.2281 -1.83165 
126 1 3.6694 27.1043 -1.8103 
129 1 8.82736 25.4454 -1.89664 
130 1 7.01805 27.0961 -1.94436 
195 1 5.35867 23.4031 -0.0494436 
197 1 3.51291 23.4709 1.82055 
199 1 8.69019 23.4389 -0.0392218 
201 1 6.96912 23.4243 1.7601 
216 1 3.62611 25.2578 -0.0357514 
217 1 5.32966 27.0787 0.00709752 
218 1 5.38336 25.2532 1.84197 
219 1 3.58961 27.0673 1.85047 
220 1 7.21813 25.2889 -0.000188109 
221 1 8.99298 27.0974 -0.0258734 
222 1 8.81891 25.096 1.72777 
223 1 7.19015 27.1464 1.75499 
131 1 -8.81652 28.7379 -1.86919 
134 1 -5.35971 28.8276 -1.92368 
135 1 -7.1167 30.6395 -1.78997 
139 1 -3.53631 30.6269 -1.81814 
151 1 -5.36 32.4997 -1.7915 
224 1 -8.7586 28.7469 1.68183 
225 1 -7.08483 28.82 -0.0743832 
226 1 -5.35887 30.6025 -0.122936 
227 1 -5.31194 28.8011 1.74539 
228 1 -7.03902 30.6177 1.58163 
229 1 -3.45059 28.8223 0.0173749 
232 1 -3.58933 30.6713 1.71044 
244 1 -5.43602 32.3874 1.58253 
245 1 -3.66016 32.4947 0.037463 
138 1 -1.71241 28.8062 -1.77079 
142 1 1.72858 29.0866 -1.89569 
143 1 -0.0364636 30.7359 -1.77406 
153 1 -1.93432 32.4458 -1.76701 
155 1 2.0119 32.3559 -1.86465 
230 1 -1.73862 30.6469 0.00104833 
231 1 -1.78345 28.9623 1.86822 
233 1 0.0254664 28.8866 0.0605359 
234 1 1.78274 30.8015 0.0940111 
235 1 1.87066 28.8657 1.85816 
236 1 0.0297844 30.7777 1.86639 
247 1 -1.96677 32.478 1.88368 
248 1 0.0029193 32.4119 -0.0773944 
250 1 1.86075 32.6071 1.88378 
146 1 5.38822 28.9248 -1.85595 
147 1 3.60058 30.7964 -1.87318 
149 1 8.84061 28.8491 -1.80045 
150 1 7.10757 30.8547 -1.50859 
158 1 5.2212 32.6326 -1.55371 
237 1 3.53304 29.0112 -0.10366 
238 1 5.26486 30.6974 0.066522 
239 1 5.46802 28.8062 1.85303 
240 1 3.59735 30.5006 1.77475 
241 1 7.00928 28.8366 0.0295037 
242 1 8.81416 28.9345 1.55454 
243 1 7.16221 30.6818 1.56239 
252 1 3.5644 32.626 0.181312 
253 1 5.31092 32.3402 1.94603 
156 1 0.0924036 33.9916 -1.97792 
246 1 -1.81277 34.0157 -0.0867006 
249 1 1.69153 34.2034 -0.101402 
251 1 -0.13053 34.1185 1.71976 
254 1 -1.85987 16.3966 3.40463 
255 1 1.85702 16.3026 3.54204 
256 1 -5.4564 19.8934 3.56384 
257 1 -3.6168 18.1223 3.47237 
260 1 -3.69975 19.7538 5.50951 
269 1 -7.2737 21.5499 3.55892 
271 1 -5.48174 21.4711 5.53395 
273 1 -3.79455 21.6471 3.72252 
332 1 -3.69376 21.4387 7.33846 
258 1 -1.93092 19.9228 3.64098 
259 1 -1.82682 18.0075 5.34858 
261 1 -0.1217 18.1496 3.62323 
262 1 1.89232 19.768 3.70238 
263 1 1.71096 18.0258 5.36686 
264 1 -0.0438517 19.7969 5.46382 
275 1 -1.86659 21.5909 5.43233 
277 1 -0.118162 21.5637 3.57132 
279 1 1.75216 21.5918 5.41116 
329 1 -1.6605 19.8546 7.174 
330 1 1.6847 19.9003 7.26829 
334 1 -1.53986 21.608 8.96133 
336 1 0.0425119 21.6989 7.11129 
338 1 1.84188 21.9316 8.92197 
265 1 3.79729 17.7898 3.73261 
266 1 5.25075 19.8234 3.68408 
267 1 3.54579 19.739 5.47053 
281 1 3.6146 21.6127 3.68406 
283 1 5.64986 21.6144 5.51875 
285 1 6.9865 21.6064 3.53497 
340 1 3.64475 21.6516 7.04985 
268 1 -8.96204 23.5959 3.68935 
270 1 -5.40867 23.3554 3.55598 
272 1 -7.0757 23.2831 5.29621 
276 1 -3.6316 23.3694 5.39735 
288 1 -8.80924 26.981 3.55738 
289 1 -7.10002 25.232 3.62073 
290 1 -5.31006 27.0563 3.71991 
291 1 -5.40834 25.1971 5.32381 
292 1 -7.07004 27.1497 5.33549 
293 1 -3.49967 25.2009 3.70552 
296 1 -3.59261 27.0195 5.46167 
331 1 -5.3357 23.5019 7.15933 
335 1 -3.48294 23.4778 8.84924 
343 1 -5.40524 26.8853 7.06877 
344 1 -3.48674 25.3009 7.11852 
347 1 -3.48489 27.0214 8.83884 
274 1 -1.79187 23.3967 3.64009 
278 1 1.77595 23.3821 3.62905 
280 1 -0.0454202 23.4417 5.37271 
294 1 -1.83012 27.1527 3.61379 
295 1 -1.7234 25.2053 5.44934 
297 1 0.0509838 25.2246 3.51728 
298 1 1.85531 27.0991 3.59735 
299 1 1.75806 25.2531 5.35516 
300 1 -0.0249427 27.031 5.33742 
333 1 -1.76875 23.3214 7.06458 
337 1 1.82249 23.4809 6.98539 
339 1 0.00656888 23.5359 8.86813 
345 1 -1.68414 27.1364 7.06638 
346 1 -1.66463 25.3554 8.82737 
348 1 0.035489 25.2303 7.0421 
349 1 1.70128 27.0523 7.03327 
350 1 1.7259 25.3272 8.96528 
351 1 -0.0291817 27.1768 8.95096 
282 1 5.33708 23.4404 3.68595 
284 1 3.70411 23.3795 5.37566 
286 1 8.7879 23.3626 3.43009 
287 1 7.21007 23.6762 5.34907 
301 1 3.5529 25.2166 3.5877 
302 1 5.53458 27.0562 3.58693 
303 1 5.41323 25.3124 5.332 
304 1 3.56025 27.0363 5.32616 
305 1 6.98709 25.1904 3.54304 
306 1 8.91277 27.039 3.55602 
307 1 7.24704 26.9304 5.4286 
341 1 5.43399 23.6455 7.13123 
342 1 3.57971 23.6691 8.76666 
352 1 3.51914 25.4055 7.03071 
353 1 5.39553 27.0426 7.15444 
354 1 3.48329 27.0814 8.84165 
308 1 -7.16049 28.9742 3.595 
309 1 -5.30142 30.7749 3.49479 
310 1 -5.38955 28.9784 5.40019 
311 1 -3.59561 28.994 3.68237 
314 1 -3.58289 30.8128 5.52371 
324 1 -3.64936 32.5366 3.61893 
355 1 -3.80071 28.9354 7.31267 
312 1 -1.90779 30.6863 3.70978 
313 1 -1.9053 28.9654 5.41978 
315 1 -0.00301759 28.9714 3.65673 
316 1 1.82203 30.6564 3.48352 
317 1 1.88885 28.8969 5.35511 
318 1 -0.0734403 30.6653 5.36787 
325 1 -1.67063 32.4998 5.31949 
326 1 0.07499 32.5441 3.54606 
327 1 1.71452 32.3735 5.34157 
356 1 -1.67655 30.6798 7.17451 
357 1 -1.77006 28.8982 8.87807 
358 1 0.0393052 28.9016 7.0126 
359 1 1.7991 30.7396 7.18185 
360 1 1.73668 28.9454 8.91861 
319 1 3.60462 28.9408 3.63777 
320 1 5.4598 30.6163 3.58778 
321 1 5.45221 28.8194 5.34359 
322 1 3.82383 30.8159 5.56769 
323 1 7.46332 29.1292 3.69215 
328 1 3.54793 32.2566 3.61479 
361 1 3.54177 28.8209 7.06088 
