ITEM: TIMESTEP
400
ITEM: NUMBER OF ATOMS
361
ITEM: BOX BOUNDS pp pp pp
-10 10
0 50
-10 10
ITEM: ATOMS id type x y z 
66 1 -1.89744 16.2726 -3.5717 
68 1 1.54606 16.031 -3.38257 
15 1 -3.72764 19.6805 -5.27511 
21 1 -5.31908 21.5137 -5.32908 
23 1 -3.56692 21.5324 -7.13708 
71 1 -5.48776 19.8345 -3.56493 
74 1 -3.76119 17.9856 -3.41389 
89 1 -7.33784 21.5331 -3.75378 
93 1 -3.47024 21.5994 -3.52899 
1 1 -1.50759 21.8487 -8.90202 
3 1 1.33109 21.4121 -8.89689 
13 1 -1.6543 19.8772 -7.11205 
14 1 -1.94461 17.9552 -5.304 
16 1 1.67437 19.7207 -6.95711 
17 1 1.61813 17.6917 -5.21248 
18 1 -0.0706245 19.7411 -5.19559 
25 1 -1.9144 21.5906 -5.34998 
27 1 -0.0232733 21.6435 -6.78619 
29 1 1.76054 21.4699 -5.27135 
75 1 -1.80995 19.7823 -3.52399 
78 1 -0.106325 18.0182 -3.44286 
79 1 1.78779 19.6728 -3.41617 
97 1 0.040117 21.5329 -3.52497 
19 1 3.54354 19.5668 -5.30468 
31 1 3.53254 21.4884 -7.11986 
33 1 5.28225 21.7232 -5.53036 
82 1 3.55036 17.8254 -3.6039 
83 1 5.37477 19.7127 -3.6831 
101 1 3.52103 21.4768 -3.73592 
105 1 6.99497 21.6046 -3.60539 
2 1 -3.70788 23.3882 -8.84991 
7 1 -3.45613 26.77 -8.89512 
20 1 -5.27412 23.3883 -7.07541 
22 1 -7.09068 23.5079 -5.27883 
26 1 -3.59444 23.4749 -5.32891 
36 1 -5.19197 26.8558 -7.17529 
37 1 -5.3144 25.2048 -5.17245 
38 1 -7.11034 26.9102 -5.56478 
39 1 -3.40176 25.1341 -7.05885 
42 1 -3.64736 27.1428 -5.37133 
87 1 -8.91109 23.6972 -3.75074 
90 1 -5.42539 23.3719 -3.49056 
109 1 -8.95949 26.7651 -3.91537 
111 1 -7.03054 25.2854 -3.54084 
112 1 -5.29131 27.1657 -3.58406 
115 1 -3.56291 25.2443 -3.56234 
4 1 0.17976 23.6227 -8.77594 
6 1 -1.85591 25.023 -8.93595 
8 1 1.90745 25.2599 -8.77759 
9 1 -0.106947 26.7642 -9.0669 
24 1 -1.73789 23.4369 -7.12631 
28 1 1.83051 23.4345 -7.12407 
30 1 0.0453292 23.5689 -5.1621 
40 1 -1.7733 27.0819 -7.12373 
41 1 -1.7372 25.2269 -5.28913 
43 1 -0.0532177 25.2408 -7.14134 
44 1 1.8793 26.9759 -7.18387 
45 1 1.81699 25.2899 -5.31193 
46 1 0.0139402 27.0017 -5.32895 
94 1 -1.72209 23.3706 -3.52763 
98 1 1.80086 23.4991 -3.58115 
116 1 -1.72742 27.0117 -3.58883 
119 1 0.041313 25.2568 -3.52039 
120 1 1.78197 27.1328 -3.55258 
5 1 3.39532 23.1607 -8.85652 
10 1 4.01409 26.819 -8.8704 
32 1 5.33644 23.5128 -7.0124 
34 1 3.50951 23.4127 -5.35222 
35 1 7.26591 23.5123 -5.32956 
47 1 3.62849 25.1997 -7.05418 
48 1 5.65362 26.905 -7.05942 
49 1 5.58304 25.3181 -5.39832 
50 1 3.68757 27.1308 -5.30702 
51 1 7.45728 27.1222 -4.94015 
102 1 5.31369 23.4583 -3.63206 
106 1 8.91768 23.276 -3.05105 
123 1 3.65391 25.3265 -3.41144 
124 1 5.28294 27.0577 -3.50817 
127 1 7.26659 25.2994 -3.41582 
128 1 8.97483 27.4635 -2.84476 
52 1 -5.43544 28.9355 -5.37358 
53 1 -3.76081 28.9108 -7.28174 
56 1 -3.52908 30.6401 -5.43277 
132 1 -7.35472 28.7492 -3.66152 
133 1 -5.49562 30.5658 -3.55294 
136 1 -3.47452 28.8959 -3.60733 
152 1 -3.58397 32.3857 -3.6334 
11 1 -1.96001 28.6106 -8.99986 
12 1 1.98642 28.1596 -9.30213 
54 1 -1.58997 30.4646 -7.33353 
55 1 -1.8951 28.9316 -5.36276 
57 1 0.301626 28.7296 -7.47837 
58 1 1.88853 30.6305 -7.39804 
59 1 1.80452 28.793 -5.49537 
60 1 0.135069 30.3878 -5.65764 
64 1 -1.75799 32.2678 -5.48499 
65 1 1.70194 32.3376 -5.63204 
137 1 -1.72095 30.7987 -3.56684 
140 1 0.0259385 28.808 -3.64971 
141 1 1.61636 30.6472 -3.6209 
154 1 0.0640998 32.6361 -3.68025 
61 1 3.77325 28.7612 -7.27688 
62 1 5.53677 28.7889 -5.33613 
63 1 3.49172 30.4541 -5.47376 
144 1 3.45876 28.9797 -3.5235 
145 1 5.2192 30.7526 -3.52374 
148 1 7.13337 29.0284 -3.41268 
157 1 3.31926 32.5161 -3.72313 
67 1 -3.66279 16.1798 -1.66509 
160 1 -3.81732 16.4364 1.8512 
69 1 -0.170329 16.0349 -1.63988 
159 1 -2.01775 16.1626 0.151505 
161 1 1.59847 16.0427 -0.0153181 
162 1 -0.0104229 16.1636 1.83365 
70 1 3.39924 16.1972 -1.68318 
163 1 3.35433 16.3473 1.81487 
72 1 -5.4605 18.0255 -1.52879 
73 1 -7.33466 20.0411 -1.71792 
77 1 -3.63401 19.8281 -1.74699 
88 1 -9.13601 22.1317 -1.66727 
91 1 -5.3988 21.4819 -1.78174 
164 1 -5.34838 19.9361 0.168511 
165 1 -5.55534 18.1188 1.75082 
166 1 -7.39741 20.1018 2.04084 
167 1 -3.54542 18.0778 0.0798365 
170 1 -3.64583 19.8998 1.97313 
181 1 -8.88476 22.1321 1.9677 
182 1 -7.28318 21.7271 0.104884 
184 1 -5.41559 21.5628 1.87501 
186 1 -3.48668 21.5227 0.0876523 
76 1 -1.70651 17.9285 -1.55587 
80 1 1.72077 17.9393 -1.74319 
81 1 -0.0500692 19.9323 -1.81802 
95 1 -1.76274 21.6233 -1.78622 
99 1 1.78933 21.6489 -1.72544 
168 1 -1.83244 19.8872 0.0386626 
169 1 -1.81316 18.0902 1.94669 
171 1 0.0359401 17.8924 0.0857777 
172 1 1.87155 19.7359 -0.121416 
173 1 1.70164 18.042 1.88778 
174 1 -0.0983098 19.8929 1.83272 
188 1 -1.80588 21.6431 1.98302 
190 1 0.0638181 21.669 0.0665895 
192 1 1.74525 21.7316 1.65129 
84 1 5.27077 17.879 -1.80812 
85 1 3.60442 19.75 -1.78441 
86 1 6.85103 19.7647 -1.73573 
103 1 5.20308 21.6056 -1.91169 
107 1 8.77095 21.0592 -1.66607 
175 1 3.54229 17.9575 0.0662991 
176 1 5.22473 19.5299 0.11044 
177 1 5.34709 17.8188 1.9273 
178 1 3.42371 19.6835 1.75799 
179 1 7.04154 19.6856 1.58105 
194 1 3.56894 21.6022 -0.0715294 
196 1 5.10256 21.6325 1.69486 
198 1 6.8848 21.5444 0.0122696 
200 1 8.94873 21.1412 1.19185 
92 1 -7.09688 23.3696 -1.80906 
96 1 -3.64865 23.3081 -1.83797 
110 1 -8.77337 25.2288 -1.86842 
113 1 -5.28271 25.1947 -1.68933 
114 1 -7.06693 27.1862 -1.84283 
118 1 -3.53097 27.0965 -1.83322 
180 1 -8.841 23.7746 0.213895 
183 1 -5.30365 23.3363 -0.0189167 
185 1 -6.98028 23.5563 1.806 
189 1 -3.59092 23.4802 1.8191 
202 1 -8.95194 26.6547 0.0633542 
203 1 -8.72454 25.2024 2.01758 
204 1 -6.96862 25.3396 0.0707487 
205 1 -5.17366 27.1101 -0.0617775 
206 1 -5.14815 25.3115 1.67265 
207 1 -6.89814 27.0516 1.92354 
208 1 -3.51249 25.2307 -0.00588219 
211 1 -3.59448 27.1736 1.72374 
100 1 0.0115201 23.4503 -1.85075 
117 1 -1.81274 25.1414 -1.7798 
121 1 1.77156 25.3174 -1.81486 
122 1 -0.030547 27.1467 -1.65641 
187 1 -1.89041 23.3939 0.0161197 
191 1 1.80849 23.4665 -0.169317 
193 1 -0.0534839 23.4021 1.78195 
209 1 -1.89619 27.0978 0.0892037 
210 1 -1.92473 25.2803 1.73093 
212 1 -0.02377 25.3397 0.123993 
213 1 1.75768 27.16 -0.0771603 
214 1 1.81862 25.3846 1.67024 
215 1 0.0901654 27.1662 1.84266 
104 1 3.75453 23.4052 -1.84878 
108 1 7.04262 23.2629 -1.68245 
125 1 5.35797 25.3007 -1.74391 
126 1 3.66597 27.0481 -1.64286 
129 1 8.86748 25.3742 -1.59469 
130 1 6.8528 27.2632 -1.66118 
195 1 5.38899 23.5293 0.0956275 
197 1 3.43701 23.5093 1.67622 
199 1 8.78054 23.4314 -0.141786 
201 1 7.11429 23.2967 1.73298 
216 1 3.55999 25.2633 0.0539067 
217 1 5.23066 27.0722 0.123584 
218 1 5.39141 25.2921 1.86565 
219 1 3.47596 27.1685 1.80948 
220 1 7.03346 25.4285 0.00624127 
221 1 8.88997 27.1736 0.117472 
222 1 8.92607 25.1572 1.42763 
223 1 7.08859 27.2091 1.75041 
131 1 -9.09299 28.3945 -1.87267 
134 1 -5.38322 29.0157 -1.83982 
135 1 -7.36051 30.3794 -1.75443 
139 1 -3.40218 30.6631 -1.88935 
151 1 -5.33584 32.3441 -1.94169 
224 1 -8.90148 28.4034 1.91062 
225 1 -7.30312 28.7 0.0806682 
226 1 -5.45573 30.6657 -0.0959024 
227 1 -5.33509 28.9552 1.72464 
228 1 -7.12127 30.527 1.69932 
229 1 -3.48913 28.8084 0.00660419 
232 1 -3.64287 30.6974 1.68811 
244 1 -5.50179 32.5217 1.72238 
245 1 -3.69977 32.503 -0.110728 
138 1 -1.77635 28.9152 -1.73081 
142 1 1.60162 29.0571 -1.81966 
143 1 -0.0420307 30.9447 -1.72297 
153 1 -1.97801 32.8974 -1.89684 
155 1 1.72408 32.6046 -1.83134 
230 1 -1.78413 30.8887 -0.00900917 
231 1 -1.80714 28.9523 1.80548 
233 1 -0.0919432 28.9479 0.0965726 
234 1 1.68669 30.8451 -0.0644202 
235 1 1.86585 28.9572 1.7962 
236 1 0.0136434 30.7594 1.88038 
247 1 -1.86292 32.5808 1.87436 
248 1 0.0295309 32.7372 0.144634 
250 1 1.85206 32.7934 1.78118 
146 1 5.18602 28.8929 -1.81962 
147 1 3.36898 30.7627 -1.85109 
149 1 8.84072 29.371 -1.14642 
150 1 7.00582 30.7917 -1.88257 
158 1 5.17391 32.5448 -1.85456 
237 1 3.49747 28.9148 -0.0657606 
238 1 5.28795 30.8695 -0.0642913 
239 1 5.32143 28.9787 1.82521 
240 1 3.49734 30.7149 1.62276 
241 1 6.84205 28.9714 0.0692253 
242 1 8.61246 29.2943 1.49871 
243 1 6.9198 30.805 1.70847 
252 1 3.60428 32.689 -0.0671329 
253 1 5.36261 32.7508 1.59449 
156 1 0.126029 34.2904 -1.70987 
246 1 -1.7452 34.4192 0.0962777 
249 1 1.79345 34.5535 -0.0339118 
251 1 -0.0733971 34.4715 1.88578 
254 1 -1.88612 16.1569 3.35958 
255 1 1.5149 16.2269 3.78101 
256 1 -5.43939 19.9949 3.80194 
257 1 -3.60512 18.0543 3.59362 
260 1 -3.555 19.6325 5.41481 
269 1 -7.32755 21.954 3.64967 
271 1 -5.47721 21.6795 5.53884 
273 1 -3.62766 21.6423 3.68706 
332 1 -3.49737 21.4546 7.03514 
258 1 -1.81335 19.8804 3.68002 
259 1 -1.66265 17.8606 5.22137 
261 1 -0.00497013 18.164 3.66746 
262 1 1.88733 19.7645 3.42874 
263 1 1.88323 18.0025 5.33698 
264 1 0.172268 19.8559 5.39482 
275 1 -1.89359 21.7538 5.28976 
277 1 0.0596145 21.6375 3.66908 
279 1 1.86883 21.6939 5.44631 
329 1 -1.65229 19.7177 6.85895 
330 1 2.02164 19.9414 7.32268 
334 1 -1.68119 21.3961 8.68858 
336 1 0.148391 21.7085 7.12555 
338 1 2.03349 21.9833 8.87312 
265 1 3.54346 17.7963 3.52057 
266 1 5.25693 19.8117 3.40131 
267 1 3.50125 19.9229 5.27274 
281 1 3.53416 21.7429 3.65896 
283 1 5.55506 21.6204 5.35848 
285 1 7.4802 21.4447 3.26632 
340 1 3.81467 21.7759 7.18458 
268 1 -8.8814 23.9469 4.02539 
270 1 -5.36011 23.385 3.715 
272 1 -6.86822 23.707 5.67349 
276 1 -3.54309 23.4506 5.292 
288 1 -8.85293 26.6235 4.00414 
289 1 -6.87651 25.2556 3.579 
290 1 -5.27608 27.0566 3.79264 
291 1 -5.06702 25.3873 5.4461 
292 1 -6.97367 26.7768 5.55741 
293 1 -3.53764 25.3342 3.6772 
296 1 -3.48625 27.2278 5.37619 
331 1 -5.0281 23.4698 7.24718 
335 1 -3.04063 23.4397 8.97098 
343 1 -5.18713 27.0044 7.27587 
344 1 -3.37946 25.4489 7.27961 
347 1 -3.31359 27.4144 8.92931 
274 1 -1.70842 23.6189 3.52923 
278 1 1.76444 23.6763 3.49505 
280 1 0.00951336 23.4153 5.45984 
294 1 -1.7862 27.0961 3.61695 
295 1 -1.59159 25.3354 5.35722 
297 1 0.0628915 25.2925 3.45961 
298 1 1.90522 27.0735 3.55394 
299 1 1.65257 25.27 5.40241 
300 1 0.0492799 27.2551 5.2711 
333 1 -1.78646 23.5523 7.09155 
337 1 1.864 23.5221 7.15109 
339 1 -0.141799 23.3744 9.01081 
345 1 -1.61679 27.122 7.09544 
346 1 -1.54484 25.5205 8.86974 
348 1 -0.0604941 25.251 7.15133 
349 1 1.71653 27.2342 6.85376 
350 1 1.62432 25.4606 8.92976 
351 1 0.155281 27.4524 8.69765 
282 1 5.40986 23.5105 3.57481 
284 1 3.61504 23.3986 5.34977 
286 1 9.1207 23.2509 3.03707 
287 1 7.25372 23.5715 4.96439 
301 1 3.61146 25.3219 3.56656 
302 1 5.36851 27.1026 3.54276 
303 1 5.50041 25.2821 5.2707 
304 1 3.48901 27.0466 5.44678 
305 1 7.38541 25.2225 3.47724 
306 1 9.10105 27.0747 3.10197 
307 1 7.27432 27.208 5.14466 
341 1 5.56338 23.5165 7.13631 
342 1 3.64315 23.938 8.95453 
352 1 3.6032 25.3764 7.03945 
353 1 5.49267 27.0935 7.11186 
354 1 3.56554 27.1228 8.74453 
308 1 -7.31804 28.8885 3.63834 
309 1 -5.25268 30.69 3.47674 
310 1 -5.46254 29.0226 5.31189 
311 1 -3.58339 28.9217 3.58629 
314 1 -3.60891 30.8575 5.27131 
324 1 -3.66198 32.5692 3.38228 
355 1 -3.72573 29.0252 7.07482 
312 1 -1.85855 30.7001 3.62457 
313 1 -1.8488 28.9717 5.19201 
315 1 0.0136171 28.9883 3.60692 
316 1 1.91982 30.7226 3.42648 
317 1 1.87546 29.101 5.29291 
318 1 -0.0316178 30.8442 5.26294 
325 1 -1.72547 32.5687 5.19091 
326 1 0.0189809 32.5869 3.51642 
327 1 1.83022 32.7498 5.11995 
356 1 -1.80026 30.6836 6.82924 
357 1 -1.57583 29.1392 8.65193 
358 1 0.0726713 29.0597 6.78447 
359 1 1.9413 31.0186 6.88581 
360 1 1.64133 29.2313 8.65535 
319 1 3.5595 28.9415 3.65801 
320 1 5.28253 30.6293 3.49385 
321 1 5.43484 28.9156 5.22717 
322 1 3.73569 31.0337 5.33467 
323 1 7.3283 29.036 3.52794 
328 1 3.53285 32.7032 3.41067 
361 1 3.59462 28.9818 7.03384 
